LAMMPS data file via write_data, version 29 Oct 2020, timestep = 0

3200 atoms
1 atom types

-21.3 21.3 xlo xhi
-19.67555 19.67555 ylo yhi
-20.0 10.0 zlo zhi

Masses

1 12.01115

Atoms # full

1741	1	1	0	-20.89324382	-9.249145588	-6.032584359	0	1	0
2925	1	1	0	-20.25280866	-18.74455826	-12.91686199	0	-1	0
2926	1	1	0	-18.81575073	-18.76028678	-12.85211421	0	-1	0
2924	1	1	0	-20.89415795	-17.54049384	-12.90919212	0	-1	0
2927	1	1	0	-18.09873506	-17.49162162	-12.99003361	0	-1	0
2928	1	1	0	-16.68556084	-17.54490709	-12.93643596	0	-1	0
2929	1	1	0	-15.93842477	-18.75893416	-12.95764371	0	-1	0
2965	1	1	0	-20.17458984	-16.31739875	-12.90721171	0	-1	0
2966	1	1	0	-18.80733584	-16.25596704	-12.90657523	0	-1	0
2969	1	1	0	-16.00072193	-16.30389408	-12.86975856	0	-1	0
2964	1	1	0	-20.9046158	-15.09565832	-12.88678135	0	-1	0
1999	1	1	0	-9.621374825	-0.735690129	-9.598774711	1	0	0
1996	1	1	0	-12.454369	-0.791840294	-9.632688688	1	0	0
2930	1	1	0	-14.50309592	-18.78106715	-12.94039089	0	-1	0
2933	1	1	0	-11.68661056	-18.79783925	-12.8998728	0	-1	0
2934	1	1	0	-10.25035042	-18.75726626	-12.86463474	0	-1	0
2932	1	1	0	-12.41483417	-17.56084738	-12.95743292	0	-1	0
2931	1	1	0	-13.84528445	-17.55445118	-12.87719539	0	-1	0
2935	1	1	0	-9.571457495	-17.52237962	-12.90597439	0	-1	0
2970	1	1	0	-14.58542895	-16.30970436	-12.77944648	0	-1	0
2973	1	1	0	-11.68947251	-16.39022671	-12.99815659	0	-1	0
2974	1	1	0	-10.28581301	-16.33557378	-12.91039919	0	-1	0
1921	1	1	0	-7.452508247	-4.471407232	-9.352819754	0	0	0
2936	1	1	0	-8.156799005	-17.54320455	-12.82439263	0	-1	0
2967	1	1	0	-18.07867328	-15.08538791	-12.80026545	0	-1	0
2968	1	1	0	-16.68011973	-15.06494789	-12.94004619	0	-1	0
3005	1	1	0	-20.19473114	-13.85398478	-12.83356723	0	-1	0
3006	1	1	0	-18.78340017	-13.8673954	-12.81900521	0	-1	0
3004	1	1	0	-20.95483512	-12.62334434	-12.85632734	0	-1	0
3007	1	1	0	-18.03274943	-12.6304035	-12.75769243	0	-1	0
3008	1	1	0	-16.62565248	-12.61246425	-12.82152217	0	-1	0
3009	1	1	0	-15.97227047	-13.83371966	-12.96373877	0	-1	0
3045	1	1	0	-20.1959026	-11.42325672	-12.83287405	0	-1	0
3046	1	1	0	-18.74589943	-11.36347797	-12.84804712	0	-1	0
3049	1	1	0	-15.96879807	-11.44711291	-13.06896291	0	-1	0
3044	1	1	0	-20.93227692	-10.15999934	-12.77626439	0	-1	0
3047	1	1	0	-18.04764887	-10.14825373	-13.03133946	0	-1	0
3048	1	1	0	-16.60286519	-10.18190458	-13.02994686	0	-1	0
2971	1	1	0	-13.86026058	-15.09771644	-12.91439389	0	-1	0
2972	1	1	0	-12.42082052	-15.17144107	-12.9924702	0	-1	0
2975	1	1	0	-9.554799798	-15.12753222	-12.84297327	0	-1	0
3010	1	1	0	-14.52238013	-13.82808516	-13.01857371	0	-1	0
3013	1	1	0	-11.66524553	-13.92136257	-12.98531271	0	-1	0
3014	1	1	0	-10.25813258	-13.88649105	-12.94986001	0	-1	0
3012	1	1	0	-12.37360929	-12.66118402	-13.20200153	0	-1	0
3011	1	1	0	-13.80257396	-12.63137121	-13.16437028	0	-1	0
3015	1	1	0	-9.519048663	-12.65218674	-13.03638812	0	-1	0
3050	1	1	0	-14.54989224	-11.37222689	-13.19252609	0	-1	0
3053	1	1	0	-11.64252366	-11.39648346	-13.09092929	0	-1	0
3054	1	1	0	-10.25141566	-11.40753694	-12.99935357	0	-1	0
2976	1	1	0	-8.147308091	-15.14354345	-12.87620954	0	-1	0
3016	1	1	0	-8.108836428	-12.64547498	-12.97445466	0	-1	0
3085	1	1	0	-20.20753398	-8.969078928	-12.98466033	0	-1	0
3086	1	1	0	-18.77759854	-8.944011174	-13.0700227	0	-1	0
3087	1	1	0	-18.04852966	-7.763663231	-13.10291676	0	-1	0
3084	1	1	0	-20.90436683	-7.778698	-12.97524045	0	-1	0
3088	1	1	0	-16.63977594	-7.705302485	-13.18543494	0	-1	0
3089	1	1	0	-15.91589161	-8.942814058	-13.00701178	0	-1	0
3125	1	1	0	-20.20279237	-6.521839435	-13.08293329	0	-1	0
3126	1	1	0	-18.77242937	-6.540675039	-12.99607236	0	-1	0
3129	1	1	0	-15.93149889	-6.49939601	-13.15685482	0	-1	0
3124	1	1	0	-20.88546194	-5.281138025	-13.03566347	0	-1	0
3128	1	1	0	-16.6599785	-5.283924311	-13.07403001	0	-1	0
3096	1	1	0	-8.113584344	-7.68289574	-13.16384203	0	-1	0
3052	1	1	0	-12.35656343	-10.1732263	-13.07740362	0	-1	0
3051	1	1	0	-13.77528485	-10.17217816	-13.07765626	0	-1	0
3055	1	1	0	-9.567079037	-10.1971174	-13.08292331	0	-1	0
3090	1	1	0	-14.51113442	-8.922721219	-13.00521822	0	-1	0
3093	1	1	0	-11.650952	-8.914427333	-12.93102976	0	-1	0
3094	1	1	0	-10.24093959	-8.966078724	-13.00637343	0	-1	0
3092	1	1	0	-12.3828301	-7.704731137	-12.94263844	0	-1	0
3091	1	1	0	-13.79258617	-7.713657868	-13.04348727	0	-1	0
3095	1	1	0	-9.535964341	-7.705835777	-13.02089358	0	-1	0
3130	1	1	0	-14.4667797	-6.458256861	-13.14580349	0	-1	0
3133	1	1	0	-11.66000375	-6.477809733	-13.02356926	0	-1	0
3134	1	1	0	-10.22517085	-6.482029358	-13.0814479	0	-1	0
3056	1	1	0	-8.133996586	-10.20145868	-13.31208226	0	-1	0
2569	1	1	0	-16.00123908	-1.582664657	-13.13728979	0	-2	0
2566	1	1	0	-18.82526206	-1.631703574	-13.26664894	0	-2	0
2565	1	1	0	-20.22707617	-1.604768361	-13.17771034	0	-2	0
3127	1	1	0	-18.06188619	-5.303707745	-13.01420584	0	-1	0
3165	1	1	0	-20.19566229	-4.054606786	-13.13330985	0	-1	0
3166	1	1	0	-18.79143232	-4.06523212	-13.03546289	0	-1	0
3168	1	1	0	-16.69241907	-2.811528751	-13.05793879	0	-1	0
3167	1	1	0	-18.0857827	-2.854701701	-13.17973224	0	-1	0
3164	1	1	0	-20.9022042	-2.855798486	-13.07897265	0	-1	0
3169	1	1	0	-15.98432899	-4.021704923	-13.07897367	0	-1	0
2564	1	1	0	-20.91823482	-0.300199756	-13.23716925	0	-2	0
2568	1	1	0	-16.73972388	-0.349347196	-13.17727991	0	-2	0
3176	1	1	0	-8.103053621	-2.79312151	-13.00312094	0	-1	0
3136	1	1	0	-8.103249276	-5.218714334	-13.2339076	0	-1	0
2573	1	1	0	-11.70394228	-1.591330212	-13.19920667	0	-2	0
2570	1	1	0	-14.52377554	-1.584102436	-13.19591921	0	-2	0
2574	1	1	0	-10.269377	-1.60199609	-13.15453565	0	-2	0
3172	1	1	0	-12.38999913	-2.858649919	-13.28168501	0	-1	0
3171	1	1	0	-13.85541832	-2.83188627	-13.26710405	0	-1	0
3175	1	1	0	-9.526417773	-2.831029189	-13.12988492	0	-1	0
3131	1	1	0	-13.74735736	-5.227812103	-13.08711842	0	-1	0
3132	1	1	0	-12.34954042	-5.245742415	-13.04344702	0	-1	0
3135	1	1	0	-9.491060769	-5.242675363	-13.20042415	0	-1	0
3170	1	1	0	-14.56673297	-4.044585358	-13.14905025	0	-1	0
3173	1	1	0	-11.6102034	-4.023688557	-13.25187112	0	-1	0
3174	1	1	0	-10.2088895	-4.074245862	-13.25211136	0	-1	0
1582	1	1	0	-19.44569758	-19.13612468	-5.826761677	0	1	0
1584	1	1	0	-17.32403277	-17.86972606	-6.058937323	0	1	0
1587	1	1	0	-14.56419918	-17.88055361	-6.028238461	0	1	0
1625	1	1	0	-16.65254879	-16.66532495	-6.031349426	0	1	0
1626	1	1	0	-15.22447324	-16.64176579	-5.842596133	0	1	0
1624	1	1	0	-17.3552657	-15.40538459	-5.906445248	0	1	0
1627	1	1	0	-14.46922293	-15.40651767	-5.741532458	0	1	0
2392	1	1	0	-16.74214635	-15.56392163	-9.375617196	1	1	0
2391	1	1	0	-18.16450005	-15.55380757	-9.34244857	1	1	0
2388	1	1	0	-20.99236615	-15.59434388	-9.383944293	1	1	0
2389	1	1	0	-20.27171478	-16.77926094	-9.484686344	1	1	0
2390	1	1	0	-18.82507307	-16.75263033	-9.463632915	1	1	0
2393	1	1	0	-16.03547391	-16.8074646	-9.45840979	1	1	0
2352	1	1	0	-16.67785634	-18.02723644	-9.565474291	1	1	0
2351	1	1	0	-18.12800068	-17.97990518	-9.570701145	1	1	0
2348	1	1	0	-20.98022183	-18.00774861	-9.539831153	1	1	0
2394	1	1	0	-14.63467694	-16.83021788	-9.49798545	1	1	0
1623	1	1	0	-18.77453881	-15.42932906	-5.968381016	0	1	0
1583	1	1	0	-18.75024746	-17.91282458	-5.995833368	0	1	0
2354	1	1	0	-14.52415716	-19.29140895	-9.491109569	1	1	0
2349	1	1	0	-20.23066286	-19.22241586	-9.523534377	1	1	0
2350	1	1	0	-18.79762656	-19.20023589	-9.462093215	1	1	0
2353	1	1	0	-15.92577034	-19.28151006	-9.481038431	1	1	0
1585	1	1	0	-16.64484408	-19.10820422	-6.015195701	0	1	0
1586	1	1	0	-15.24478596	-19.10072034	-6.005466136	0	1	0
1622	1	1	0	-19.44298566	-16.66807207	-5.961455263	0	1	0
1593	1	1	0	-8.137786336	-19.0860713	-6.08934411	0	1	0
1588	1	1	0	-13.16322568	-17.88428281	-6.12488461	0	1	0
1629	1	1	0	-12.37847285	-16.64862186	-5.981674312	0	1	0
1628	1	1	0	-13.09114036	-15.42722646	-5.916918029	0	1	0
1589	1	1	0	-12.37180113	-19.10423734	-6.00373022	0	1	0
1630	1	1	0	-10.96343164	-16.60207581	-6.029967674	0	1	0
1592	1	1	0	-8.80907019	-17.83017884	-5.969422785	0	1	0
1591	1	1	0	-10.24183624	-17.80861752	-6.011222381	0	1	0
2576	1	1	0	-8.161707029	-0.312520986	-13.0508098	0	-2	0
1633	1	1	0	-8.10362909	-16.63131055	-5.909144113	0	1	0
1631	1	1	0	-10.27787091	-15.40034857	-5.92520604	0	1	0
1632	1	1	0	-8.797979089	-15.40276776	-5.872960566	0	1	0
2395	1	1	0	-13.90202324	-15.64200848	-9.407510543	1	1	0
2396	1	1	0	-12.48974879	-15.62232899	-9.386902799	1	1	0
2399	1	1	0	-9.704246164	-15.57439989	-9.303947257	1	1	0
2400	1	1	0	-8.304612822	-15.52320332	-9.485306846	1	1	0
2398	1	1	0	-10.39664491	-16.79583938	-9.330421532	1	1	0
2397	1	1	0	-11.7855125	-16.82950766	-9.437638241	1	1	0
2359	1	1	0	-9.644532303	-18.00397548	-9.340900542	1	1	0
2356	1	1	0	-12.45416117	-18.0514727	-9.427546854	1	1	0
2355	1	1	0	-13.85722019	-18.05240798	-9.478416348	1	1	0
2360	1	1	0	-8.223924058	-17.99563848	-9.368896211	1	1	0
2361	1	1	0	-7.534582904	-16.79675257	-9.472726869	0	1	0
2358	1	1	0	-10.32727092	-19.25876495	-9.285721587	1	1	0
2357	1	1	0	-11.77643901	-19.26894575	-9.340036778	1	1	0
1590	1	1	0	-10.9789194	-19.07356406	-6.018380708	0	1	0
2321	1	1	0	-7.475178955	-19.21990353	-9.328628238	0	1	0
2572	1	1	0	-12.40901385	-0.427976304	-12.93276146	0	-2	0
1702	1	1	0	-19.49372004	-11.71187793	-5.939996837	0	1	0
1662	1	1	0	-19.48646262	-14.18198028	-5.966694263	0	1	0
2429	1	1	0	-20.26413891	-14.33439644	-9.352508083	1	1	0
2430	1	1	0	-18.82074103	-14.35446004	-9.355978915	1	1	0
2433	1	1	0	-16.04401312	-14.33472776	-9.346796517	1	1	0
1665	1	1	0	-16.57669691	-14.23210189	-5.897816884	0	1	0
1666	1	1	0	-15.22299098	-14.16899248	-5.775174884	0	1	0
2434	1	1	0	-14.61420357	-14.3865837	-9.423335902	1	1	0
2431	1	1	0	-18.10511728	-13.13416309	-9.329933936	1	1	0
2432	1	1	0	-16.68149009	-13.08785363	-9.323538955	1	1	0
2428	1	1	0	-20.98003146	-13.10579309	-9.369186037	1	1	0
2469	1	1	0	-20.23063687	-11.85589754	-9.269812545	1	1	0
2470	1	1	0	-18.83013148	-11.86799333	-9.296690739	1	1	0
2473	1	1	0	-16.0111954	-11.87255933	-9.358409188	1	1	0
2472	1	1	0	-16.71463355	-10.6047237	-9.314450032	1	1	0
2471	1	1	0	-18.10461079	-10.68452885	-9.267073834	1	1	0
2468	1	1	0	-20.9245615	-10.62032147	-9.334493671	1	1	0
1664	1	1	0	-17.32894031	-12.93527004	-5.972165091	0	1	0
1667	1	1	0	-14.49724927	-12.98149615	-5.815951432	0	1	0
1705	1	1	0	-16.61473794	-11.71055444	-6.008065847	0	1	0
1706	1	1	0	-15.17527745	-11.70662131	-5.974396919	0	1	0
1704	1	1	0	-17.31064176	-10.48182818	-6.079110918	0	1	0
1707	1	1	0	-14.47928386	-10.48083041	-6.051569865	0	1	0
2474	1	1	0	-14.58622063	-11.90834732	-9.398136111	1	1	0
1703	1	1	0	-18.78190091	-10.44684089	-6.027991366	0	1	0
1663	1	1	0	-18.78133929	-12.94558584	-5.946698485	0	1	0
1673	1	1	0	-8.105779971	-14.19857087	-5.976924071	0	1	0
1669	1	1	0	-12.34867922	-14.18515969	-5.913160719	0	1	0
1668	1	1	0	-13.08862926	-13.01353703	-5.872605419	0	1	0
1709	1	1	0	-12.42565924	-11.7510353	-5.961720983	0	1	0
1708	1	1	0	-13.06687304	-10.50911281	-5.968847317	0	1	0
2438	1	1	0	-10.36909385	-14.33181913	-9.365876081	1	1	0
2437	1	1	0	-11.83593241	-14.34912417	-9.45487146	1	1	0
1670	1	1	0	-10.95406489	-14.17731687	-5.763960538	0	1	0
2571	1	1	0	-13.80771723	-0.38385155	-12.99918511	0	-2	0
2401	1	1	0	-7.510877531	-14.34255074	-9.466551579	0	1	0
2436	1	1	0	-12.48190895	-13.08472187	-9.483433765	1	1	0
2435	1	1	0	-13.91476235	-13.16850452	-9.323618632	1	1	0
2439	1	1	0	-9.650952492	-13.1023274	-9.384311553	1	1	0
2440	1	1	0	-8.218632491	-13.08953707	-9.450288346	1	1	0
2478	1	1	0	-10.37215644	-11.88011277	-9.415300748	1	1	0
2477	1	1	0	-11.76519002	-11.86539242	-9.518221412	1	1	0
2475	1	1	0	-13.85634574	-10.64737644	-9.515179037	1	1	0
2479	1	1	0	-9.61479158	-10.6805619	-9.385665483	1	1	0
2476	1	1	0	-12.44546901	-10.65212475	-9.563676345	1	1	0
1710	1	1	0	-10.99771833	-11.75805588	-5.981639302	0	1	0
1671	1	1	0	-10.25973994	-12.97268588	-5.844663453	0	1	0
1672	1	1	0	-8.818015677	-12.96486904	-5.956915095	0	1	0
1713	1	1	0	-8.158053326	-11.72373384	-5.958330749	0	1	0
2575	1	1	0	-9.591333232	-0.368430078	-13.09334103	0	-2	0
1712	1	1	0	-8.840571261	-10.46384644	-5.903100718	0	1	0
1711	1	1	0	-10.26120514	-10.48866707	-5.904088726	0	1	0
2480	1	1	0	-8.187591748	-10.62600562	-9.307282858	1	1	0
2441	1	1	0	-7.523218966	-11.85985497	-9.269642804	0	1	0
1782	1	1	0	-19.44901067	-6.744677807	-6.171739834	0	1	0
1742	1	1	0	-19.47402817	-9.216469817	-6.002691564	0	1	0
1743	1	1	0	-18.75027193	-8.008396886	-6.180084368	0	1	0
2509	1	1	0	-20.24489331	-9.426755409	-9.380657031	1	1	0
2513	1	1	0	-15.90997561	-9.395143746	-9.474746769	1	1	0
2510	1	1	0	-18.84264761	-9.466163462	-9.284439229	1	1	0
1745	1	1	0	-16.61554254	-9.258958068	-6.317002083	0	1	0
1746	1	1	0	-15.21032714	-9.24981293	-6.181587823	0	1	0
2514	1	1	0	-14.5256194	-9.423164467	-9.464697665	1	1	0
1783	1	1	0	-18.7670261	-5.543693414	-6.185663142	0	1	0
2511	1	1	0	-18.07410851	-8.245023979	-9.382543482	1	1	0
2512	1	1	0	-16.6440711	-8.206676577	-9.488603832	1	1	0
2508	1	1	0	-20.96432899	-8.181031178	-9.44448757	1	1	0
2553	1	1	0	-15.91050293	-6.958604725	-9.52614504	1	1	0
2550	1	1	0	-18.77897405	-6.9193978	-9.551584833	1	1	0
2549	1	1	0	-20.23364626	-6.957734811	-9.563300223	1	1	0
2552	1	1	0	-16.64677216	-5.72177817	-9.672538114	1	1	0
2551	1	1	0	-18.0790018	-5.715894069	-9.623402777	1	1	0
2548	1	1	0	-20.94664632	-5.723371324	-9.642857865	1	1	0
1744	1	1	0	-17.35925331	-8.046114372	-6.201911918	0	1	0
1747	1	1	0	-14.51524683	-8.017890648	-6.239039914	0	1	0
1785	1	1	0	-16.64660327	-6.800750743	-6.195780205	0	1	0
1786	1	1	0	-15.23023319	-6.780535067	-6.162679834	0	1	0
1784	1	1	0	-17.35080673	-5.5614134	-6.269360133	0	1	0
1787	1	1	0	-14.52302581	-5.532017505	-6.079597587	0	1	0
2554	1	1	0	-14.52142323	-6.932760024	-9.429967662	1	1	0
2567	1	1	0	-18.14848545	-0.368704102	-13.25670519	0	-2	0
1749	1	1	0	-12.3868745	-9.280747648	-6.045297387	0	1	0
1748	1	1	0	-13.09848522	-8.062442606	-6.160249447	0	1	0
1789	1	1	0	-12.39880697	-6.801070184	-6.160165644	0	1	0
1788	1	1	0	-13.14158207	-5.564826412	-6.117966328	0	1	0
2517	1	1	0	-11.75039828	-9.38706085	-9.595395345	1	1	0
2518	1	1	0	-10.29890409	-9.387334043	-9.433810176	1	1	0
1750	1	1	0	-10.95285829	-9.299294585	-6.055246711	0	1	0
1753	1	1	0	-8.138498248	-9.23218471	-5.842248	0	1	0
2481	1	1	0	-7.51572994	-9.377571391	-9.298299707	0	1	0
2516	1	1	0	-12.44245631	-8.178364867	-9.467007013	1	1	0
2519	1	1	0	-9.592157051	-8.14227416	-9.3493528	1	1	0
2515	1	1	0	-13.83729805	-8.163074922	-9.420111372	1	1	0
2520	1	1	0	-8.184338298	-8.129190416	-9.196122804	1	1	0
2557	1	1	0	-11.70631217	-6.96001118	-9.438925492	1	1	0
2558	1	1	0	-10.30830679	-6.912020797	-9.314639899	1	1	0
2555	1	1	0	-13.83150919	-5.70206915	-9.601044627	1	1	0
2556	1	1	0	-12.40045933	-5.741180461	-9.554443011	1	1	0
2559	1	1	0	-9.627629034	-5.63582609	-9.357365416	1	1	0
1790	1	1	0	-11.0136702	-6.811453455	-6.071902415	0	1	0
1752	1	1	0	-8.850749464	-8.047590617	-5.944186438	0	1	0
1751	1	1	0	-10.25909981	-8.037963871	-6.112087333	0	1	0
1793	1	1	0	-8.141946795	-6.803408567	-5.949633692	0	1	0
1830	1	1	0	-10.9952422	-4.316497032	-6.077402106	0	1	0
1791	1	1	0	-10.29302028	-5.537769576	-6.111487335	0	1	0
1792	1	1	0	-8.881269094	-5.569252136	-5.921776696	0	1	0
2560	1	1	0	-8.189904252	-5.715058812	-9.364481174	1	1	0
2521	1	1	0	-7.447137884	-6.875394055	-9.249432057	0	1	0
1822	1	1	0	-19.46411418	-4.312355727	-6.230806492	0	1	0
1862	1	1	0	-19.4975273	-1.912622059	-6.175367951	0	1	0
1863	1	1	0	-18.74045024	-0.623472652	-6.161869111	0	1	0
1949	1	1	0	-20.19294926	-4.508200714	-9.546504611	1	0	0
1953	1	1	0	-15.9232954	-4.523494148	-9.517830917	1	0	0
1950	1	1	0	-18.77895738	-4.462720696	-9.620081907	1	0	0
1826	1	1	0	-15.26067302	-4.297552308	-6.105604958	0	1	0
1825	1	1	0	-16.67162193	-4.315383401	-6.15316477	0	1	0
1954	1	1	0	-14.49781912	-4.451291053	-9.551194505	1	0	0
1952	1	1	0	-16.67080525	-3.292889078	-9.652301326	1	0	0
1951	1	1	0	-18.05683159	-3.267722388	-9.618569025	1	0	0
1948	1	1	0	-20.92865306	-3.3394159	-9.560203888	1	0	0
1993	1	1	0	-15.96076386	-2.047578284	-9.707387804	1	0	0
1990	1	1	0	-18.79056107	-2.093136799	-9.642786018	1	0	0
1989	1	1	0	-20.19430004	-2.106134308	-9.513643412	1	0	0
1864	1	1	0	-17.37474491	-0.687236246	-5.985846657	0	1	0
1867	1	1	0	-14.46341934	-0.692806743	-5.962380201	0	1	0
1992	1	1	0	-16.65499778	-0.821519395	-9.69089712	1	0	0
1991	1	1	0	-18.12392847	-0.855830284	-9.587270304	1	0	0
1988	1	1	0	-20.93088925	-0.858042896	-9.63211619	1	0	0
1865	1	1	0	-16.69079253	-1.887070763	-6.156550103	0	1	0
1866	1	1	0	-15.21540353	-1.85977282	-6.010472369	0	1	0
1827	1	1	0	-14.52496366	-3.074399605	-6.120283753	0	1	0
1824	1	1	0	-17.33625128	-3.105144222	-6.191169494	0	1	0
1823	1	1	0	-18.7635953	-3.110506705	-6.200094641	0	1	0
1994	1	1	0	-14.52383331	-2.043817267	-9.682627823	1	0	0
1997	1	1	0	-11.73909182	-1.986231706	-9.668301005	1	0	0
1960	1	1	0	-8.216949129	-3.19497288	-9.314880306	1	0	0
1959	1	1	0	-9.628855448	-3.251211241	-9.515796874	1	0	0
1956	1	1	0	-12.43777683	-3.245377533	-9.641902434	1	0	0
1955	1	1	0	-13.83340764	-3.250702799	-9.568688578	1	0	0
1829	1	1	0	-12.41601698	-4.357657226	-6.164598757	0	1	0
1868	1	1	0	-13.0655437	-0.639589362	-5.960172699	0	1	0
1869	1	1	0	-12.34271257	-1.881516617	-6.055746921	0	1	0
1828	1	1	0	-13.10225303	-3.118078215	-6.133893864	0	1	0
1872	1	1	0	-8.793745344	-0.64583606	-5.999297929	0	1	0
1961	1	1	0	-7.453954575	-1.96658793	-9.463416664	0	0	0
1998	1	1	0	-10.30217252	-1.996963398	-9.584935824	1	0	0
1873	1	1	0	-8.107841673	-1.86712427	-5.971920789	0	1	0
1995	1	1	0	-13.86960745	-0.791763327	-9.578905831	1	0	0
1832	1	1	0	-8.875463027	-3.086710498	-6.006951214	0	1	0
1871	1	1	0	-10.20864413	-0.683945538	-6.159468101	0	1	0
1870	1	1	0	-10.92971752	-1.899027462	-6.109884498	0	1	0
2000	1	1	0	-8.186623119	-0.728615957	-9.442960128	1	0	0
1833	1	1	0	-8.178936996	-4.350130419	-5.935643955	0	1	0
1958	1	1	0	-10.29464687	-4.453747173	-9.569730666	1	0	0
1957	1	1	0	-11.71320284	-4.498712031	-9.684788797	1	0	0
1831	1	1	0	-10.29230582	-3.106788414	-5.995647317	0	1	0
2937	1	1	0	-7.464941016	-18.74822127	-12.77254911	0	-1	0
2977	1	1	0	-7.428725339	-16.3477534	-12.86179929	0	-1	0
3017	1	1	0	-7.421475684	-13.88920268	-12.9461869	0	-1	0
3057	1	1	0	-7.424186068	-11.3865636	-13.16700507	0	-1	0
3097	1	1	0	-7.401607463	-8.950526074	-13.25579086	0	-1	0
3137	1	1	0	-7.421183856	-6.466221112	-13.19907125	0	-1	0
3177	1	1	0	-7.401288679	-4.007352446	-13.25493837	0	-1	0
2577	1	1	0	-7.435747486	-1.547292868	-13.06441849	0	-2	0
1821	1	1	0	-20.90369031	-4.335976086	-6.229914041	0	1	0
1621	1	1	0	-20.89992459	-16.62395253	-5.91236326	0	1	0
1581	1	1	0	-20.86457023	-19.10667443	-5.858318107	0	1	0
1661	1	1	0	-20.91565301	-14.16492491	-5.829501658	0	1	0
1861	1	1	0	-20.8951323	-1.855359228	-6.200137581	0	1	0
1701	1	1	0	-20.92564126	-11.69773208	-6.000005892	0	1	0
1781	1	1	0	-20.87249734	-6.764402272	-6.169752837	0	1	0
1062	1	1	0	-16.79286432	-18.31321269	-2.572182194	1	1	0
1063	1	1	0	-16.13137684	-17.06756242	-2.675247676	1	1	0
1064	1	1	0	-14.67897019	-17.06783875	-2.664852345	1	1	0
1102	1	1	0	-16.82966226	-15.84618927	-2.667284221	1	1	0
1061	1	1	0	-18.21709036	-18.26522752	-2.684691188	1	1	0
1101	1	1	0	-18.23080686	-15.86934975	-2.714400521	1	1	0
1060	1	1	0	-18.94814475	-17.02838674	-2.62648982	1	1	0
1059	1	1	0	-20.36662651	-17.08592721	-2.643857503	1	1	0
1100	1	1	0	-18.88211388	-14.6484076	-2.677721745	1	1	0
1099	1	1	0	-20.32864061	-14.58313878	-2.487721999	1	1	0
1103	1	1	0	-16.05148261	-14.63280617	-2.627711515	1	1	0
1104	1	1	0	-14.65694483	-14.59468757	-2.522643842	1	1	0
1058	1	1	0	-21.09559747	-18.30528483	-2.591496564	1	1	0
1098	1	1	0	-21.02835365	-15.82688388	-2.571977687	1	1	0
1024	1	1	0	-14.6451579	-19.51219967	-2.747256558	1	1	0
1023	1	1	0	-16.07044134	-19.55365771	-2.597238171	1	1	0
1065	1	1	0	-13.97820713	-18.29437841	-2.636697321	1	1	0
1105	1	1	0	-13.96907864	-15.82533177	-2.565940067	1	1	0
1066	1	1	0	-12.56476502	-18.30716264	-2.688197131	1	1	0
1106	1	1	0	-12.52351695	-15.83214432	-2.555807787	1	1	0
1067	1	1	0	-11.79008576	-17.0884515	-2.625929278	1	1	0
1069	1	1	0	-9.705351474	-18.30573749	-2.484374442	1	1	0
1070	1	1	0	-8.291611279	-18.2836426	-2.449250729	1	1	0
1068	1	1	0	-10.35477181	-17.07929543	-2.609819834	1	1	0
1071	1	1	0	-7.556195665	-17.09562749	-2.418146071	1	1	0
1110	1	1	0	-8.288997504	-15.82362212	-2.403782196	1	1	0
1109	1	1	0	-9.64911992	-15.7999505	-2.640984143	1	1	0
1108	1	1	0	-10.37049833	-14.62198507	-2.518406725	1	1	0
1111	1	1	0	-7.587259097	-14.61912455	-2.334567014	1	1	0
1107	1	1	0	-11.81826634	-14.61251185	-2.392503372	1	1	0
1028	1	1	0	-10.39205374	-19.52170337	-2.468732206	1	1	0
1027	1	1	0	-11.85058188	-19.53445614	-2.518326963	1	1	0
1142	1	1	0	-16.73285054	-13.42209833	-2.609940989	1	1	0
1143	1	1	0	-16.07078999	-12.20837846	-2.551482056	1	1	0
1144	1	1	0	-14.62840497	-12.15147216	-2.537460251	1	1	0
1182	1	1	0	-16.79464555	-10.8855052	-2.529471715	1	1	0
1181	1	1	0	-18.18554516	-10.89086119	-2.605239257	1	1	0
1141	1	1	0	-18.1689797	-13.37789323	-2.616352489	1	1	0
1140	1	1	0	-18.93863714	-12.11573705	-2.637370853	1	1	0
1139	1	1	0	-20.35039669	-12.1266711	-2.496590712	1	1	0
1183	1	1	0	-16.06960794	-9.681226868	-2.65269271	1	1	0
1180	1	1	0	-18.90210678	-9.655501493	-2.622819939	1	1	0
1179	1	1	0	-20.35755811	-9.692551623	-2.757257758	1	1	0
1178	1	1	0	-21.04359543	-10.92353141	-2.664208171	1	1	0
1138	1	1	0	-21.05210255	-13.38356025	-2.399492732	1	1	0
1185	1	1	0	-13.89589093	-10.91757812	-2.480144846	1	1	0
1145	1	1	0	-13.9553016	-13.39708943	-2.538673906	1	1	0
1186	1	1	0	-12.45800734	-10.88199992	-2.467737917	1	1	0
1146	1	1	0	-12.56341288	-13.34404851	-2.404898525	1	1	0
1147	1	1	0	-11.79198753	-12.15471841	-2.431722881	1	1	0
1149	1	1	0	-9.633139471	-13.35961498	-2.541582105	1	1	0
1150	1	1	0	-8.229879825	-13.35759208	-2.328491593	1	1	0
1151	1	1	0	-7.516025075	-12.11145463	-2.352455298	1	1	0
1148	1	1	0	-10.38856199	-12.18505336	-2.517899631	1	1	0
1190	1	1	0	-8.237674932	-10.88466818	-2.472904489	1	1	0
1189	1	1	0	-9.692236378	-10.9125769	-2.533570598	1	1	0
1187	1	1	0	-11.78107487	-9.660045704	-2.584740758	1	1	0
1191	1	1	0	-7.512490075	-9.694988901	-2.513488612	1	1	0
1188	1	1	0	-10.37169199	-9.669298169	-2.504757963	1	1	0
1184	1	1	0	-14.6708249	-9.699433276	-2.646105079	1	1	0
1222	1	1	0	-16.76664122	-8.438830223	-2.73375635	1	1	0
1223	1	1	0	-16.06447866	-7.242265947	-2.599024949	1	1	0
1224	1	1	0	-14.64363775	-7.251603279	-2.613037618	1	1	0
1262	1	1	0	-16.76560276	-6.009827436	-2.655245848	1	1	0
1261	1	1	0	-18.16177955	-5.984675511	-2.711418897	1	1	0
1221	1	1	0	-18.17828391	-8.438030426	-2.797263684	1	1	0
1220	1	1	0	-18.89589807	-7.215295908	-2.700883151	1	1	0
1219	1	1	0	-20.30588361	-7.228208771	-2.687355065	1	1	0
1260	1	1	0	-18.88422317	-4.810981414	-2.627993851	1	1	0
1259	1	1	0	-20.27704753	-4.767888231	-2.706292349	1	1	0
1264	1	1	0	-14.69747476	-4.749459278	-2.683003931	1	1	0
1218	1	1	0	-21.03166628	-8.493505784	-2.716533979	1	1	0
1258	1	1	0	-21.05055783	-5.980880286	-2.687618395	1	1	0
1225	1	1	0	-13.96418785	-8.519108666	-2.615732745	1	1	0
1265	1	1	0	-13.99398392	-5.993260488	-2.727506283	1	1	0
1226	1	1	0	-12.53990941	-8.466533921	-2.556244062	1	1	0
1266	1	1	0	-12.57982222	-6.013195224	-2.664646056	1	1	0
1227	1	1	0	-11.81022107	-7.185791971	-2.521963344	1	1	0
1229	1	1	0	-9.687044406	-8.434641204	-2.43378114	1	1	0
1230	1	1	0	-8.269445613	-8.467447133	-2.432821033	1	1	0
1228	1	1	0	-10.38665144	-7.256632099	-2.44599637	1	1	0
1231	1	1	0	-7.593738422	-7.211347492	-2.439139659	1	1	0
1269	1	1	0	-9.733972652	-5.996286693	-2.474794213	1	1	0
1270	1	1	0	-8.325452039	-5.969502641	-2.523022568	1	1	0
1271	1	1	0	-7.619543829	-4.735750024	-2.472903195	1	1	0
1268	1	1	0	-10.47828232	-4.78453095	-2.454205856	1	1	0
1263	1	1	0	-16.06734838	-4.770345654	-2.691318045	1	1	0
664	1	1	0	-14.67182564	-2.303352106	-2.716086757	1	0	0
663	1	1	0	-16.06361434	-2.30077859	-2.800592337	1	0	0
662	1	1	0	-16.77190008	-3.558667667	-2.641206945	1	0	0
702	1	1	0	-16.8274822	-1.097051671	-2.67636097	1	0	0
661	1	1	0	-18.22750415	-3.538010438	-2.740567643	1	0	0
701	1	1	0	-18.21946099	-1.075427539	-2.735928176	1	0	0
660	1	1	0	-18.93105918	-2.291313986	-2.734465023	1	0	0
659	1	1	0	-20.34072209	-2.288926189	-2.925520677	1	0	0
148	1	1	0	-7.734208031	-2.060251802	0.868573072	0	0	0
108	1	1	0	-7.765160129	-4.512273692	0.864320775	0	0	0
698	1	1	0	-21.04804907	-1.058280161	-2.918928663	1	0	0
658	1	1	0	-21.02478819	-3.541457412	-2.755215863	1	0	0
144	1	1	0	-11.98522026	-2.071940014	0.72143023	0	0	0
107	1	1	0	-9.180771792	-4.554249463	0.963349208	0	0	0
1267	1	1	0	-11.87159477	-4.769822076	-2.599988171	1	1	0
665	1	1	0	-14.0152173	-3.572041686	-2.654755379	1	0	0
705	1	1	0	-13.97387723	-1.075829724	-2.629016312	1	0	0
666	1	1	0	-12.59398186	-3.573916856	-2.554401838	1	0	0
706	1	1	0	-12.55176113	-1.089719554	-2.609429689	1	0	0
667	1	1	0	-11.85734706	-2.366134862	-2.524052864	1	0	0
670	1	1	0	-8.340741727	-3.542987372	-2.400999158	1	0	0
669	1	1	0	-9.722948245	-3.586096122	-2.477837095	1	0	0
668	1	1	0	-10.39337121	-2.356444158	-2.513905002	1	0	0
671	1	1	0	-7.586990578	-2.318943809	-2.318296546	1	0	0
710	1	1	0	-8.338828517	-1.061061464	-2.295878054	1	0	0
709	1	1	0	-9.711359828	-1.115038134	-2.383282317	1	0	0
143	1	1	0	-13.45044289	-2.02371034	0.658821536	0	0	0
146	1	1	0	-9.872382574	-3.340288544	0.888248352	0	0	0
182	1	1	0	-14.12740322	-0.819500959	0.678784018	0	0	0
499	1	1	0	-17.72142305	-19.25194771	1.010220935	0	1	0
500	1	1	0	-16.3323799	-19.28660669	0.917697829	0	1	0
537	1	1	0	-19.83926233	-18.05654167	0.795727319	0	1	0
541	1	1	0	-15.64576398	-18.00503863	0.893009181	0	1	0
538	1	1	0	-18.40335496	-18.02994488	0.955749443	0	1	0
539	1	1	0	-17.72000137	-16.77670925	0.821987076	0	1	0
540	1	1	0	-16.26380574	-16.74856919	0.862679066	0	1	0
496	1	1	0	-20.56013997	-19.27677994	0.854314391	0	1	0
536	1	1	0	-20.49966016	-16.74635993	0.77855929	0	1	0
581	1	1	0	-15.57034362	-15.51228334	0.730336835	0	1	0
577	1	1	0	-19.84213938	-15.54183398	0.819018965	0	1	0
578	1	1	0	-18.46974517	-15.59455973	0.6902123	0	1	0
542	1	1	0	-14.1732589	-17.9524252	0.816378912	0	1	0
543	1	1	0	-13.42479437	-16.73750175	0.749827352	0	1	0
503	1	1	0	-13.45032135	-19.18579467	0.810499183	0	1	0
507	1	1	0	-9.270468791	-19.15706939	0.808231549	0	1	0
504	1	1	0	-12.02307443	-19.16813167	0.949193175	0	1	0
545	1	1	0	-11.34890968	-17.97250893	0.744336077	0	1	0
546	1	1	0	-9.956974458	-17.97241815	0.739817781	0	1	0
547	1	1	0	-9.237762663	-16.76036625	0.932876563	0	1	0
544	1	1	0	-11.99354517	-16.72239902	0.731972421	0	1	0
582	1	1	0	-14.15358318	-15.51569051	0.815507527	0	1	0
585	1	1	0	-11.28470657	-15.50670851	0.83046792	0	1	0
586	1	1	0	-9.902799599	-15.51280749	0.898905433	0	1	0
508	1	1	0	-7.838485723	-19.19596418	0.952906061	0	1	0
548	1	1	0	-7.841560255	-16.75444393	1.025092047	0	1	0
616	1	1	0	-20.57069483	-11.87827587	0.83483807	0	1	0
576	1	1	0	-20.56730752	-14.37939817	0.877000271	0	1	0
579	1	1	0	-17.75868113	-14.34301378	0.920677154	0	1	0
580	1	1	0	-16.27692058	-14.29178529	0.747737011	0	1	0
621	1	1	0	-15.54573385	-13.07823222	0.860590119	0	1	0
617	1	1	0	-19.86149443	-13.13712213	1.037664887	0	1	0
618	1	1	0	-18.43581424	-13.11584194	0.919917694	0	1	0
620	1	1	0	-16.32166397	-11.86549481	0.906584172	0	1	0
619	1	1	0	-17.76237752	-11.8719309	0.873450733	0	1	0
17	1	1	0	-19.88338578	-10.63301585	0.777315907	0	0	0
18	1	1	0	-18.47150675	-10.62269252	0.801046488	0	0	0
21	1	1	0	-15.57798902	-10.61979211	0.801971079	0	0	0
622	1	1	0	-14.11548049	-13.06383829	0.792509051	0	1	0
583	1	1	0	-13.42478797	-14.30793963	0.808728697	0	1	0
623	1	1	0	-13.38189374	-11.85251642	0.853548558	0	1	0
587	1	1	0	-9.189341906	-14.29306434	0.994700425	0	1	0
584	1	1	0	-12.02724665	-14.33124052	0.764428324	0	1	0
626	1	1	0	-9.919684203	-13.06491952	1.045871661	0	1	0
625	1	1	0	-11.36320016	-13.10479436	0.968111371	0	1	0
624	1	1	0	-11.9964805	-11.84916957	0.8811527	0	1	0
627	1	1	0	-9.218029779	-11.82949907	0.985951863	0	1	0
22	1	1	0	-14.15096512	-10.63726638	0.888599096	0	0	0
25	1	1	0	-11.31179174	-10.66085532	0.996996878	0	0	0
26	1	1	0	-9.938793956	-10.63297224	1.056551706	0	0	0
628	1	1	0	-7.776246836	-11.7970166	1.038843978	0	1	0
588	1	1	0	-7.814629446	-14.24606161	1.121889861	0	1	0
56	1	1	0	-20.57541047	-6.962093451	0.534374163	0	0	0
20	1	1	0	-16.31403382	-9.374466254	0.803991228	0	0	0
19	1	1	0	-17.74772757	-9.412684216	0.669383301	0	0	0
58	1	1	0	-18.45161377	-8.165635058	0.744116407	0	0	0
57	1	1	0	-19.87934561	-8.169446961	0.677469921	0	0	0
61	1	1	0	-15.5699972	-8.155858015	0.72025534	0	0	0
60	1	1	0	-16.28040109	-6.90748517	0.855899975	0	0	0
59	1	1	0	-17.69951571	-6.909747726	0.67201103	0	0	0
16	1	1	0	-20.57321929	-9.413180136	0.808861864	0	0	0
101	1	1	0	-15.62588773	-5.657691542	0.934288782	0	0	0
97	1	1	0	-19.87034977	-5.759932336	0.718367235	0	0	0
98	1	1	0	-18.42330957	-5.710387164	0.724925442	0	0	0
62	1	1	0	-14.14310507	-8.164156713	0.807453082	0	0	0
63	1	1	0	-13.41218505	-6.911823991	0.93435879	0	0	0
23	1	1	0	-13.4516498	-9.386144255	0.848596035	0	0	0
64	1	1	0	-11.97938354	-6.963557541	0.843521286	0	0	0
67	1	1	0	-9.138755169	-6.957332428	0.944840951	0	0	0
24	1	1	0	-12.02908404	-9.426069043	1.062649778	0	0	0
27	1	1	0	-9.170968289	-9.432691641	0.988141649	0	0	0
65	1	1	0	-11.28548997	-8.178880455	0.941673545	0	0	0
66	1	1	0	-9.817827829	-8.196086266	1.001978692	0	0	0
105	1	1	0	-11.27208698	-5.764578593	0.882502469	0	0	0
106	1	1	0	-9.854051436	-5.758980415	0.917626029	0	0	0
102	1	1	0	-14.1411148	-5.721395034	0.837416843	0	0	0
68	1	1	0	-7.714696114	-6.930494497	0.892469631	0	0	0
28	1	1	0	-7.755098361	-9.390661013	0.97698273	0	0	0
136	1	1	0	-20.58759774	-2.135935393	0.652659599	0	0	0
96	1	1	0	-20.55389056	-4.504689477	0.665141043	0	0	0
100	1	1	0	-16.30973431	-4.433697531	0.828721669	0	0	0
99	1	1	0	-17.73425017	-4.441518472	0.749939183	0	0	0
138	1	1	0	-18.42447943	-3.261917525	0.665144213	0	0	0
137	1	1	0	-19.8429566	-3.287651711	0.678233662	0	0	0
141	1	1	0	-15.5818501	-3.220595547	0.836747757	0	0	0
139	1	1	0	-17.6980758	-2.028966371	0.750713396	0	0	0
140	1	1	0	-16.30301867	-1.999582283	0.739881952	0	0	0
181	1	1	0	-15.58138481	-0.79831503	0.583098225	0	0	0
177	1	1	0	-19.90776212	-0.857390446	0.768907019	0	0	0
178	1	1	0	-18.46630707	-0.821084506	0.826738982	0	0	0
186	1	1	0	-9.854725035	-0.787826707	0.957509438	0	0	0
145	1	1	0	-11.31337716	-3.31719156	0.782990741	0	0	0
147	1	1	0	-9.150283588	-2.073162113	1.06520606	0	0	0