LAMMPS data file via write_data, version 29 Oct 2020, timestep = 0

7680 atoms
7 atom types
7640 bonds
9 bond types
14400 angles
18 angle types
20560 dihedrals
23 dihedral types
8800 impropers
13 improper types

-21.3 21.3 xlo xhi
-19.67555 19.67555 ylo yhi
-75.0 115.0 zlo zhi

Masses

1 1.008
2 12.01115
3 1.00797
4 12.01115
5 15.9994
6 14.01
7 12.01115

Pair Coeffs # lj/class2/coul/long

1 0.013 1.65
2 0.054 4.01
3 0.02 2.995
4 0.12 3.81
5 0.267 3.3
6 0.106 3.6
7 0.054 4.01

Bond Coeffs # class2

1 0.9959 495.829 -1092.72 1441.13
2 1.101 345 -691.89 844.6
3 1.53 299.67 -501.77 679.81
4 1.4632 319.159 -586.324 961.414
5 1.5202 253.707 -423.037 396.9
6 1.202 851.14 -1918.49 2160.77
7 1.366 390.678 -768.38 923.242
8 1.53 299.67 -501.77 679.81
9 1.101 345 -691.89 844.6

Angle Coeffs # class2

1 107.66 39.641 -12.921 -2.4318
2 110.77 41.453 -10.604 5.129
3 108.533 66.9202 -13.648 10.328
4 109.83 76.8966 -48.7334 18.0162
5 112.67 39.516 -7.443 -9.5583
6 108.53 51.9747 -9.4851 -10.9985
7 107.734 40.6099 -28.8121 0
8 123.145 55.5431 -17.2123 0.1348
9 116.926 39.4193 -10.9945 -8.7733
10 125.532 101.876 -41.8094 0
11 122.948 40.482 -16.2028 0
12 122.373 27.6081 -10.3291 9.28
13 120.135 29.2218 -14.1448 7.238
14 122.752 60.4647 -29.6188 0
15 110.77 41.453 -10.604 5.129
16 107.66 39.641 -12.921 -2.4318
17 110.77 41.453 -10.604 5.129
18 112.67 39.516 -7.443 -9.5583

BondBond Coeffs

1 5.3316 1.101 1.101
2 3.3872 1.53 1.101
3 16.1478 1.101 1.4632
4 11.1849 1.53 1.4632
5 0 1.53 1.53
6 5.4199 1.53 1.5202
7 0.7115 1.101 1.5202
8 46.0685 1.5202 1.202
9 56.4788 1.5202 1.366
10 116.945 1.202 1.366
11 8.6253 0.9959 1.366
12 10.2817 0.9959 0.9959
13 5.2897 0.9959 1.4632
14 27.8556 1.4632 1.366
15 3.3872 1.53 1.101
16 5.3316 1.101 1.101
17 3.3872 1.101 1.53
18 0 1.53 1.53

BondAngle Coeffs

1 18.103 18.103 1.101 1.101
2 20.754 11.421 1.53 1.101
3 12.6574 48.1889 1.101 1.4632
4 18.3324 46.2073 1.53 1.4632
5 8.016 8.016 1.53 1.53
6 18.1678 15.8758 1.53 1.5202
7 9.1765 12.4632 1.101 1.5202
8 34.9982 37.1298 1.5202 1.202
9 25.3712 6.0803 1.5202 1.366
10 46.1093 32.8758 1.202 1.366
11 0 0 0.9959 1.366
12 11.578 11.578 0.9959 0.9959
13 10.9972 13.8967 0.9959 1.4632
14 0 0 1.4632 1.366
15 20.754 11.421 1.53 1.101
16 18.103 18.103 1.101 1.101
17 11.421 20.754 1.101 1.53
18 8.016 8.016 1.53 1.53

Dihedral Coeffs # class2

1 -0.1432 0 0.0617 0 -0.1083 0
2 0 0 0.0316 0 -0.1681 0
3 0 0 0 0 -0.1441 0
4 0 0 0 0 -0.1441 0
5 0 0 0 0 -0.3263 0
6 0 0 0 0 -0.2263 0
7 0 0 0 0 -0.3263 0
8 0 0 0 0 -0.2263 0
9 0 0 0.0514 0 -0.143 0
10 0.0972 0 0.0722 0 -0.2581 0
11 -0.0228 0 0.028 0 -0.1863 0
12 0.0442 0 0.0292 0 0.0562 0
13 0.1693 0 -0.009 0 -0.0687 0
14 -0.1804 0 0.0012 0 0.0371 0
15 0.1693 0 -0.009 0 -0.0687 0
16 -0.8236 0 2.1467 0 -0.2142 0
17 0 0 2.0521 0 0 0
18 -0.7532 0 2.7392 0 0.0907 0
19 0 0 2.0521 0 0 0
20 -0.1432 0 0.0617 0 -0.1083 0
21 0 0 0.0316 0 -0.1681 0
22 0 0 0.0316 0 -0.1681 0
23 0 0 0.0514 0 -0.143 0

AngleAngleTorsion Coeffs

1 -12.564 110.77 110.77
2 -16.164 112.67 110.77
3 0 110.77 109.83
4 0 112.67 109.83
5 0 108.533 120.135
6 0 108.533 122.752
7 0 109.83 120.135
8 0 109.83 122.752
9 -22.045 112.67 112.67
10 -0.3801 112.67 108.53
11 -5.3624 110.77 108.53
12 -8.019 108.53 123.145
13 0 108.53 116.926
14 -15.3496 107.734 123.145
15 0 107.734 116.926
16 0 116.926 122.948
17 0 125.532 122.948
18 0 116.926 122.752
19 0 125.532 122.752
20 -12.564 110.77 110.77
21 -16.164 112.67 110.77
22 -16.164 110.77 112.67
23 -22.045 112.67 112.67

EndBondTorsion Coeffs

1 0.213 0.312 0.0777 0.213 0.312 0.0777 1.101 1.101
2 0.2486 0.2422 -0.0925 0.0814 0.0591 0.2219 1.53 1.101
3 0 0 0 0 0 0 1.101 1.4632
4 0 0 0 0 0 0 1.53 1.4632
5 0 0 0 0 0 0 1.101 0.9959
6 0 0 0 0 0 0 1.101 1.366
7 0 0 0 0 0 0 1.53 0.9959
8 0 0 0 0 0 0 1.53 1.366
9 -0.0732 0 0 -0.0732 0 0 1.53 1.53
10 0.0062 -0.0002 0.0036 0.0055 0.006 -0.0009 1.53 1.5202
11 -0.0097 -0.0315 -0.0755 -0.0204 0.3628 -0.4426 1.101 1.5202
12 0.2654 0.0503 0.1046 -0.281 0.0816 -0.1522 1.53 1.202
13 0 0 0 0 0 0 1.53 1.366
14 1.2143 0.2831 0.3916 -0.2298 0.0354 0.3853 1.101 1.202
15 0 0 0 0 0 0 1.101 1.366
16 0 0 0 0 0 0 1.5202 0.9959
17 0 0 0 0 0 0 1.202 0.9959
18 0 0 0 0 0 0 1.5202 1.4632
19 0 0 0 0 0 0 1.202 1.4632
20 0.213 0.312 0.0777 0.213 0.312 0.0777 1.101 1.101
21 0.2486 0.2422 -0.0925 0.0814 0.0591 0.2219 1.53 1.101
22 0.0814 0.0591 0.2219 0.2486 0.2422 -0.0925 1.101 1.53
23 -0.0732 0 0 -0.0732 0 0 1.53 1.53

MiddleBondTorsion Coeffs

1 -14.261 -0.5322 -0.4864 1.53
2 -14.879 -3.6581 -0.3138 1.53
3 0 0 0 1.53
4 0 0 0 1.53
5 0 0 0 1.4632
6 0 0 0 1.4632
7 0 0 0 1.4632
8 0 0 0 1.4632
9 -17.787 -7.1877 0 1.53
10 -1.5945 0.2267 -0.6911 1.53
11 -3.5039 1.2458 -0.761 1.53
12 0.3388 -0.1096 0.1219 1.5202
13 -2.0061 -1.5432 1.9095 1.5202
14 0.2359 0.9139 0.9594 1.5202
15 0.2296 -0.4149 0.8003 1.5202
16 -0.5298 4.7356 -1.0637 1.366
17 0 0 0 1.366
18 -9.2512 3.4093 -2.8365 1.366
19 0 0 0 1.366
20 -14.261 -0.5322 -0.4864 1.53
21 -14.879 -3.6581 -0.3138 1.53
22 -14.879 -3.6581 -0.3138 1.53
23 -17.787 -7.1877 0 1.53

BondBond13 Coeffs

1 0 1.101 1.101
2 0 1.53 1.101
3 0 1.101 1.4632
4 0 1.53 1.4632
5 0 1.101 0.9959
6 0 1.101 1.366
7 0 1.53 0.9959
8 0 1.53 1.366
9 0 1.53 1.53
10 0 1.53 1.5202
11 0 1.101 1.5202
12 0 1.53 1.202
13 0 1.53 1.366
14 0 1.101 1.202
15 0 1.101 1.366
16 0 1.5202 0.9959
17 0 1.202 0.9959
18 0 1.5202 1.4632
19 0 1.202 1.4632
20 0 1.101 1.101
21 0 1.53 1.101
22 0 1.101 1.53
23 0 1.53 1.53

AngleTorsion Coeffs

1 -0.8085 0.5569 -0.2466 -0.8085 0.5569 -0.2466 110.77 110.77
2 -0.2454 0 -0.1136 0.3113 0.4516 -0.1988 112.67 110.77
3 0 0 0 0 0 0 110.77 109.83
4 0 0 0 0 0 0 112.67 109.83
5 0 0 0 0 0 0 108.533 120.135
6 0 0 0 0 0 0 108.533 122.752
7 0 0 0 0 0 0 109.83 120.135
8 0 0 0 0 0 0 109.83 122.752
9 0.3886 -0.3139 0.1389 0.3886 -0.3139 0.1389 112.67 112.67
10 -0.2607 0.3203 -0.2283 0.0515 -0.0674 -0.0474 112.67 108.53
11 0.0162 1.4211 -1.4092 -0.7466 -0.9448 -0.6321 110.77 108.53
12 0.0885 -1.3703 -0.5452 0.675 0.5965 0.6725 108.53 123.145
13 0 0 0 0 0 0 108.53 116.926
14 9.1299 -0.4847 0.3582 -1.4946 0.7308 -0.2083 107.734 123.145
15 0 0 0 0 0 0 107.734 116.926
16 0 0 0 0 0 0 116.926 122.948
17 0 0 0 0 0 0 125.532 122.948
18 0 0 0 0 0 0 116.926 122.752
19 0 0 0 0 0 0 125.532 122.752
20 -0.8085 0.5569 -0.2466 -0.8085 0.5569 -0.2466 110.77 110.77
21 -0.2454 0 -0.1136 0.3113 0.4516 -0.1988 112.67 110.77
22 0.3113 0.4516 -0.1988 -0.2454 0 -0.1136 110.77 112.67
23 0.3886 -0.3139 0.1389 0.3886 -0.3139 0.1389 112.67 112.67

Improper Coeffs # class2

1 24.3329 0
2 -6.5636 0
3 -5.3119 0
4 0 0
5 0 0
6 0 0
7 0 0
8 0 0
9 0 0
10 0 0
11 0 0
12 0 0
13 0 0

AngleAngle Coeffs

1 0 0 0 123.145 125.532 116.926
2 0 0 0 122.373 122.948 122.948
3 0 0 0 120.135 122.752 122.948
4 0.2738 -0.4825 0.2738 110.77 107.66 110.77
5 0 0 0 107.66 108.533 108.533
6 0 0 0 110.77 108.533 109.83
7 -1.3199 -1.3199 0.1184 112.67 110.77 110.77
8 1.0827 -1.8202 2.0403 110.77 107.734 108.53
9 -3.3867 -3.3867 -3.4976 107.66 107.734 107.734
10 0.2738 -0.4825 0.2738 110.77 107.66 110.77
11 -0.3157 -0.3157 -0.3157 107.66 107.66 107.66
12 0.2738 0.2738 -0.4825 107.66 110.77 110.77
13 0.1184 -1.3199 -1.3199 110.77 110.77 112.67

Atoms # full

1	1	1	0.378	-5.19821236	10.27180188	18.60004419	1	1	0
2	1	2	0.104	-8.405787357	5.507961803	16.4712129	1	1	0
3	1	3	0.053	-7.643635003	4.785069722	16.32313992	1	1	0
4	1	3	0.053	-9.277418057	4.935414511	16.77472886	1	1	0
5	1	2	-0.106	-8.087777408	6.769731205	17.29586336	1	1	0
6	1	3	0.053	-8.717944102	7.637888002	17.09945795	1	1	0
7	1	3	0.053	-8.189319892	6.570832552	18.39332629	1	1	0
8	1	2	-0.106	-6.634408779	7.072314048	16.92170468	1	1	0
9	1	3	0.053	-6.595999402	7.649156107	16.03752201	1	1	0
10	1	3	0.053	-6.102179433	6.199261071	16.76229901	1	1	0
11	1	2	-0.106	-5.851164102	8.074079253	17.81401636	1	1	0
12	1	3	0.053	-4.836711317	8.156625194	17.4946903	1	1	0
13	1	3	0.053	-6.32193185	9.076885018	17.58114301	1	1	0
14	1	2	-0.106	-5.843195465	7.866439585	19.32467178	1	1	0
15	1	3	0.053	-6.870194459	8.166361949	19.70480674	1	1	0
16	1	3	0.053	-5.638278351	6.861707072	19.64254921	1	1	0
17	1	4	0.642	-4.687402452	8.758512409	19.87219823	1	1	0
18	1	5	-0.531	-3.948112588	8.25389917	20.64180489	1	1	0
19	1	6	-0.867	-4.527607646	9.98010045	19.30467353	1	1	0
20	1	1	0.378	-3.881269965	10.62245011	19.77986881	1	1	0
21	1	1	0.378	-8.048605064	6.521009937	14.64865122	1	1	0
22	1	2	0.104	-10.2969016	3.405865946	9.965134834	1	1	0
23	1	3	0.053	-10.13459269	3.012168782	11.00724409	1	1	0
24	1	3	0.053	-11.24795335	2.858681666	9.582436082	1	1	0
25	1	2	-0.106	-10.43639079	4.929199516	9.834223838	1	1	0
26	1	3	0.053	-10.69919596	5.294359765	8.853730775	1	1	0
27	1	3	0.053	-11.25464848	5.235920541	10.56804067	1	1	0
28	1	2	-0.106	-9.361864688	5.789537741	10.46949005	1	1	0
29	1	3	0.053	-9.702684852	6.838653503	10.37638007	1	1	0
30	1	3	0.053	-8.374351188	5.673858957	9.938070198	1	1	0
31	1	2	-0.106	-9.037908365	5.489333771	11.94957228	1	1	0
32	1	3	0.053	-8.765689506	4.460400421	11.94330186	1	1	0
33	1	3	0.053	-8.085084487	5.984116263	12.18195772	1	1	0
34	1	2	-0.106	-10.01617769	5.750860157	13.10530478	1	1	0
35	1	3	0.053	-10.2893598	6.82005626	13.09887713	1	1	0
36	1	3	0.053	-10.92741396	5.125519618	12.97599498	1	1	0
37	1	4	0.642	-9.515996049	5.223497682	14.43464645	1	1	0
38	1	5	-0.531	-9.857075213	4.106709139	14.71009976	1	1	0
39	1	6	-0.699	-8.728156833	6.00809431	15.12840538	1	1	0
40	1	1	0.378	-9.030295855	3.372225832	8.203393919	1	1	0
41	1	2	0.104	-8.26788543	-2.454520963	4.448345143	1	1	0
42	1	3	0.053	-8.971252918	-3.07419143	3.768416297	1	1	0
43	1	3	0.053	-7.710835727	-1.748140266	3.846512062	1	1	0
44	1	2	-0.106	-9.07782895	-1.618874928	5.455545977	1	1	0
45	1	3	0.053	-9.930937231	-1.180198999	4.982916053	1	1	0
46	1	3	0.053	-9.525044577	-2.163097895	6.260999327	1	1	0
47	1	2	-0.106	-8.206995325	-0.564821047	6.059884962	1	1	0
48	1	3	0.053	-7.691168089	0.019132442	5.282411091	1	1	0
49	1	3	0.053	-7.426818469	-1.133312284	6.630494504	1	1	0
50	1	2	-0.106	-8.865050481	0.378685954	7.071221136	1	1	0
51	1	3	0.053	-9.454013035	1.169028545	6.664553633	1	1	0
52	1	3	0.053	-9.579770775	-0.104795771	7.754956174	1	1	0
53	1	2	-0.106	-7.839579524	1.083776978	7.972195079	1	1	0
54	1	3	0.053	-7.188924791	0.373822198	8.583994304	1	1	0
55	1	3	0.053	-7.240571191	1.758692444	7.352521323	1	1	0
56	1	4	0.642	-8.625742079	1.69680269	9.193135663	1	1	0
57	1	5	-0.531	-8.850588769	0.889329536	10.05136142	1	1	0
58	1	6	-0.699	-9.169681755	2.953444302	9.144795273	1	1	0
59	1	1	0.378	-6.324192411	-2.983608748	5.063356114	1	1	0
60	1	2	0.104	-2.554691321	-8.097495627	6.186601745	1	1	0
61	1	3	0.053	-2.087720135	-8.411178303	5.247920936	1	1	0
62	1	3	0.053	-1.637878352	-7.83837576	6.723433162	1	1	0
63	1	2	-0.106	-3.365188154	-6.839755932	5.875497864	1	1	0
64	1	3	0.053	-3.464388444	-6.260689274	6.795753163	1	1	0
65	1	3	0.053	-2.926787169	-6.220844092	5.060808072	1	1	0
66	1	2	-0.106	-4.644486396	-7.285745295	5.23589953	1	1	0
67	1	3	0.053	-4.369314611	-7.877611829	4.297002126	1	1	0
68	1	3	0.053	-5.144540251	-7.92768987	5.945821561	1	1	0
69	1	2	-0.106	-5.613129734	-6.167296098	4.77361564	1	1	0
70	1	3	0.053	-5.107268605	-5.410127744	4.143256126	1	1	0
71	1	3	0.053	-6.376852406	-6.420976236	4.092524948	1	1	0
72	1	2	-0.106	-6.304444235	-5.399441616	5.962905611	1	1	0
73	1	3	0.053	-6.76380523	-6.139218261	6.69258559	1	1	0
74	1	3	0.053	-5.441246124	-5.064762786	6.673733883	1	1	0
75	1	4	0.642	-7.501945181	-4.622885737	5.443205793	1	1	0
76	1	5	-0.531	-8.583533376	-5.119027579	5.415064549	1	1	0
77	1	6	-0.699	-7.271140961	-3.376947517	5.004589985	1	1	0
78	1	1	0.378	-3.524461114	-8.908499305	7.889355449	1	1	0
79	1	2	0.104	-7.170631819	-13.9806683	8.352226425	1	1	0
80	1	3	0.053	-8.282745081	-14.06798661	8.273264319	1	1	0
81	1	3	0.053	-6.862471267	-13.68988355	7.319400624	1	1	0
82	1	2	-0.106	-6.66804464	-12.92438412	9.406888005	1	1	0
83	1	3	0.053	-7.385241104	-12.06832268	9.317644643	1	1	0
84	1	3	0.053	-6.945822077	-13.14764745	10.53704324	1	1	0
85	1	2	-0.106	-5.238264825	-12.55151002	9.259240337	1	1	0
86	1	3	0.053	-4.713412241	-13.43392061	8.913229581	1	1	0
87	1	3	0.053	-4.798071461	-12.35699484	10.23118357	1	1	0
88	1	2	-0.106	-4.870984686	-11.44204443	8.23981229	1	1	0
89	1	3	0.053	-5.400587084	-11.54204971	7.278332654	1	1	0
90	1	3	0.053	-5.270351061	-10.51960658	8.706118259	1	1	0
91	1	2	-0.106	-3.382152859	-11.4405364	7.884366247	1	1	0
92	1	3	0.053	-2.68670659	-11.28637797	8.79213964	1	1	0
93	1	3	0.053	-3.134995338	-12.42331978	7.436755877	1	1	0
94	1	4	0.642	-3.113037256	-10.42683235	6.75753493	1	1	0
95	1	5	-0.531	-2.85502242	-10.84383127	5.677622711	1	1	0
96	1	6	-0.699	-3.30380681	-9.10425719	6.978908516	1	1	0
97	1	1	0.378	-5.739093755	-15.37236566	8.352108336	1	1	0
98	1	2	0.104	-2.741827001	-18.30556852	11.31767752	1	1	0
99	1	3	0.053	-2.813266808	-17.47682112	10.63045181	1	1	0
100	1	3	0.053	-2.182982722	-17.97187584	12.17904703	1	1	0
101	1	2	-0.106	-4.071503182	-18.78522414	11.89508152	1	1	0
102	1	3	0.053	-3.954211543	19.64797215	12.36921332	1	0	0
103	1	3	0.053	-4.306469406	-18.0692523	12.64995122	1	1	0
104	1	2	-0.106	-5.061536861	-18.8083604	10.79198878	1	1	0
105	1	3	0.053	-5.820770176	-19.57965451	10.99950951	1	1	0
106	1	3	0.053	-4.340210518	-19.21093123	10.00110605	1	1	0
107	1	2	-0.106	-5.686023505	-17.55177326	10.2297629	1	1	0
108	1	3	0.053	-6.231985619	-17.09618749	11.02486152	1	1	0
109	1	3	0.053	-4.907187806	-16.88346806	9.876919796	1	1	0
110	1	2	-0.106	-6.664580222	-17.78861145	9.085733665	1	1	0
111	1	3	0.053	-6.259735587	-18.29035523	8.160746578	1	1	0
112	1	3	0.053	-7.461788193	-18.47990331	9.428368352	1	1	0
113	1	4	0.642	-7.37813848	-16.42291122	8.97595161	1	1	0
114	1	5	-0.531	-8.505091771	-16.33022463	9.350212161	1	1	0
115	1	6	-0.699	-6.666324938	-15.36707191	8.518953109	1	1	0
116	1	1	0.378	-2.372600171	19.04912821	10.84700608	1	0	0
117	1	2	0.104	-0.341480208	15.93462406	5.39725134	1	0	0
118	1	3	0.053	-0.793722521	15.13270856	5.963676149	1	0	0
119	1	3	0.053	-0.738073303	15.79508065	4.361778904	1	0	0
120	1	2	-0.106	-0.720259263	17.38551922	5.970394726	1	0	0
121	1	3	0.053	-0.51823933	18.22936595	5.256211996	1	0	0
122	1	3	0.053	-1.847562383	17.42209677	6.097654963	1	0	0
123	1	2	-0.106	-0.162246626	17.59010027	7.402531391	1	0	0
124	1	3	0.053	0.893960479	17.64992494	7.245792461	1	0	0
125	1	3	0.053	-0.371034013	16.67471597	7.983128419	1	0	0
126	1	2	-0.106	-0.739673451	18.83194426	8.029486403	1	0	0
127	1	3	0.053	-0.452753314	19.67436885	7.452057486	1	0	0
128	1	3	0.053	-1.787540666	18.69686204	8.032221138	1	0	0
129	1	2	-0.106	-0.189957998	18.99598415	9.383926461	1	0	0
130	1	3	0.053	-0.349261702	18.06951095	10.04809786	1	0	0
131	1	3	0.053	0.90046184	19.20387517	9.358596617	1	0	0
132	1	4	0.642	-0.895610063	-19.16533643	9.995904055	1	1	0
133	1	5	-0.531	-0.473507642	-18.06258748	9.702877456	1	1	0
134	1	6	-0.699	-2.062650938	-19.39603939	10.64791649	1	1	0
135	1	1	0.378	1.591052804	16.62051773	4.946114812	1	0	0
136	1	2	0.104	5.995371186	13.96450143	1.533644113	1	0	0
137	1	3	0.053	6.202352449	14.92370415	0.911493941	1	0	0
138	1	3	0.053	6.85024401	13.32460093	1.422295348	1	0	0
139	1	2	-0.106	6.165406696	14.38060394	2.944822668	1	0	0
140	1	3	0.053	5.882779738	13.52954725	3.658595264	1	0	0
141	1	3	0.053	7.221937164	14.44692651	3.29003094	1	0	0
142	1	2	-0.106	5.328351401	15.60520773	3.386744626	1	0	0
143	1	3	0.053	5.468943808	16.46777066	2.697988132	1	0	0
144	1	3	0.053	5.64812344	15.94166251	4.356027082	1	0	0
145	1	2	-0.106	3.825914015	15.40127053	3.575856251	1	0	0
146	1	3	0.053	3.421868604	16.4697018	3.690067586	1	0	0
147	1	3	0.053	3.491836452	15.07324341	2.538669859	1	0	0
148	1	2	-0.106	3.323380438	14.60830716	4.852556864	1	0	0
149	1	3	0.053	3.477592994	13.51045515	4.726276773	1	0	0
150	1	3	0.053	3.846018341	14.9012067	5.69106151	1	0	0
151	1	4	0.642	1.789022716	14.67787865	5.140971425	1	0	0
152	1	5	-0.531	1.283248566	13.57750173	5.38194743	1	0	0
153	1	6	-0.699	1.120922596	15.83028738	5.31203205	1	0	0
154	1	1	0.378	4.128826795	13.82619863	0.560159746	1	0	0
155	1	2	0.104	-1.644859791	11.83511269	2.120701182	1	0	0
156	1	3	0.053	-2.345821431	12.34320387	2.792950617	1	0	0
157	1	3	0.053	-1.884398433	12.10362787	1.051417897	1	0	0
158	1	2	-0.106	-0.210243949	12.25776452	2.508708824	1	0	0
159	1	3	0.053	-0.066159516	13.33499055	2.578366963	1	0	0
160	1	3	0.053	0.195319378	11.86889394	3.4520405	1	0	0
161	1	2	-0.106	0.794331217	11.80602041	1.409631082	1	0	0
162	1	3	0.053	0.525383774	12.27093119	0.435375862	1	0	0
163	1	3	0.053	0.709895261	10.70442359	1.216823338	1	0	0
164	1	2	-0.106	2.20033173	12.23386555	1.921516416	1	0	0
165	1	3	0.053	2.265473166	13.27428774	1.783297997	1	0	0
166	1	3	0.053	2.218623021	11.88623968	2.971582618	1	0	0
167	1	2	-0.106	3.260889897	11.46734009	1.18582265	1	0	0
168	1	3	0.053	3.361553906	10.39575505	1.489190106	1	0	0
169	1	3	0.053	3.099090065	11.48564525	0.114049351	1	0	0
170	1	4	0.642	4.587699878	12.07067497	1.684424604	1	0	0
171	1	5	-0.531	5.41183344	11.52155168	2.353232369	1	0	0
172	1	6	-0.699	4.712234036	13.356659	1.268320609	1	0	0
173	1	1	0.378	-0.937088472	9.809642936	1.983363708	1	0	0
174	1	7	-0.159	-4.838541054	4.402430358	4.538401895	1	0	0
175	1	3	0.053	-5.144479152	3.74046125	3.725958724	1	0	0
176	1	3	0.053	-3.775376345	4.125082863	4.775348961	1	0	0
177	1	2	-0.106	-5.093154337	5.841914465	4.202634733	1	0	0
178	1	3	0.053	-6.206181669	6.00332172	3.889255875	1	0	0
179	1	3	0.053	-4.978596069	6.359414261	5.20120291	1	0	0
180	1	2	-0.106	-4.199195845	6.40353939	3.16811285	1	0	0
181	1	3	0.053	-4.65874637	6.39540762	2.147436845	1	0	0
182	1	3	0.053	-3.371360225	5.668262002	3.102700275	1	0	0
183	1	2	-0.106	-3.742765886	7.826501553	3.462427442	1	0	0
184	1	3	0.053	-4.74880717	8.305399828	3.737750119	1	0	0
185	1	3	0.053	-2.998723454	7.835842266	4.256668847	1	0	0
186	1	2	-0.106	-3.119422283	8.344861851	2.14117602	1	0	0
187	1	3	0.053	-2.311640071	7.643509856	1.957338583	1	0	0
188	1	3	0.053	-3.884015283	8.277847721	1.35051121	1	0	0
189	1	4	0.642	-2.951520698	9.874808174	2.356469255	1	0	0
190	1	5	-0.531	-3.924533204	10.46945691	2.757384246	1	0	0
191	1	6	-0.699	-1.754548435	10.39554268	2.142597287	1	0	0
192	1	3	0.053	-5.457552246	4.13355962	5.415406111	1	0	0
193	2	3	0.053	-10.07133254	6.447919014	35.17872332	1	0	0
194	2	6	-0.699	-12.25286382	12.80600731	37.51345631	1	0	0
195	2	5	-0.531	-13.17513098	12.76490258	35.4429555	1	0	0
196	2	4	0.642	-12.89298143	12.18723872	36.4684909	1	0	0
197	2	3	0.053	-12.62595913	10.12398686	37.43323977	1	0	0
198	2	3	0.053	-14.21595239	10.48952766	36.60611972	1	0	0
199	2	2	-0.106	-13.08227916	10.66038432	36.57145906	1	0	0
200	2	3	0.053	-13.27279189	10.50544629	34.47910297	1	0	0
201	2	3	0.053	-11.58134162	10.421352	34.97007024	1	0	0
202	2	2	-0.106	-12.55057882	10.11127764	35.222008	1	0	0
203	2	3	0.053	-12.17172969	8.423045935	34.05922617	1	0	0
204	2	3	0.053	-13.37461798	7.965043293	35.20780942	1	0	0
205	2	2	-0.106	-12.42399573	8.547267163	35.0938503	1	0	0
206	2	3	0.053	-10.41419681	8.564120987	35.8974494	1	0	0
207	2	3	0.053	-11.76610301	8.122024308	36.94144066	1	0	0
208	2	2	-0.106	-11.34482948	7.908925526	35.94976902	1	0	0
209	2	3	0.053	-11.76395371	5.807841764	35.33564252	1	0	0
210	2	3	0.053	-10.92227203	5.972047102	36.72600747	1	0	0
211	2	7	-0.159	-10.98520149	6.48015573	35.75184695	1	0	0
212	2	1	0.378	-11.74837746	12.30660034	38.25587357	1	0	0
213	2	6	-0.699	-11.60773353	15.52935245	44.15082411	1	0	0
214	2	5	-0.531	-9.973707411	16.97445388	43.40328959	1	0	0
215	2	4	0.642	-10.5822507	15.9668227	43.36024564	1	0	0
216	2	3	0.053	-9.16106842	15.01409179	42.24859656	1	0	0
217	2	3	0.053	-10.49922174	13.92372814	42.65735823	1	0	0
218	2	2	-0.106	-10.26963545	14.91744688	42.31589993	1	0	0
219	2	3	0.053	-12.06137554	15.54150507	41.43443285	1	0	0
220	2	3	0.053	-10.72633118	16.31854466	40.78048352	1	0	0
221	2	2	-0.106	-11.0024541	15.31689218	41.13968612	1	0	0
222	2	3	0.053	-11.38325037	13.42208662	40.10130638	1	0	0
223	2	3	0.053	-9.839193919	14.32383127	39.7354103	1	0	0
224	2	2	-0.106	-10.96870505	14.39482573	39.89062543	1	0	0
225	2	3	0.053	-12.75359138	15.3582566	38.99420544	1	0	0
226	2	3	0.053	-11.17828272	15.97915698	38.3548197	1	0	0
227	2	2	-0.106	-11.74892315	15.040351	38.71063996	1	0	0
228	2	3	0.053	-11.11594266	14.28538312	36.69183134	1	0	0
229	2	3	0.053	-12.80803174	14.66268336	36.81909754	1	0	0
230	2	2	0.104	-11.99809756	14.19259262	37.37451392	1	0	0
231	2	1	0.378	-12.1325973	14.67142449	44.0589453	1	0	0
232	2	6	-0.699	-18.8019641	15.76998971	45.84322805	1	0	0
233	2	5	-0.531	-17.79992922	13.97307784	46.79820267	1	0	0
234	2	4	0.642	-17.75738149	14.88019151	46.01070039	1	0	0
235	2	3	0.053	-16.20293955	13.97515035	44.91775256	1	0	0
236	2	3	0.053	-16.91996941	15.47833927	44.02152416	1	0	0
237	2	2	-0.106	-16.59184621	15.08260416	45.05269132	1	0	0
238	2	3	0.053	-16.26265049	17.05622669	45.63529081	1	0	0
239	2	3	0.053	-15.55692895	16.08289097	46.81830786	1	0	0
240	2	2	-0.106	-15.63032502	16.10969428	45.73760757	1	0	0
241	2	3	0.053	-14.02819805	17.40987746	45.06469613	1	0	0
242	2	3	0.053	-14.28488292	16.07085205	44.11038516	1	0	0
243	2	2	-0.106	-14.23252322	16.28777951	45.18268617	1	0	0
244	2	3	0.053	-13.42159952	16.02431532	46.98962045	1	0	0
245	2	3	0.053	-13.22515641	14.59785173	46.11318457	1	0	0
246	2	2	-0.106	-13.18336383	15.67011599	46.02714365	1	0	0
247	2	3	0.053	-10.92141678	15.52142037	46.06794075	1	0	0
248	2	3	0.053	-11.62693948	17.1698973	45.46215372	1	0	0
249	2	2	0.104	-11.75639812	16.03406632	45.51657005	1	0	0
250	2	1	0.378	-18.6232075	16.660673	45.42183885	1	0	0
251	2	6	-0.699	18.13941401	19.10005435	43.68514126	0	0	0
252	2	5	-0.531	18.98442897	-18.24317046	44.24249331	0	1	0
253	2	4	0.642	19.13276645	-19.46138801	44.1242683	0	1	0
254	2	3	0.053	20.86892257	18.62965486	43.62348241	0	0	0
255	2	3	0.053	21.08462742	-19.32388703	44.81174878	0	1	0
256	2	2	-0.106	20.44759292	19.15896006	44.53610846	0	0	0
257	2	3	0.053	19.87043717	18.95676373	46.54445927	0	0	0
258	2	3	0.053	19.47166204	17.42918239	45.69126076	0	0	0
259	2	2	-0.106	20.22622384	18.29424821	45.79819725	0	0	0
260	2	3	0.053	-20.56176859	18.26540907	47.12648896	1	0	0
261	2	3	0.053	-20.23093483	17.83639107	45.45953544	1	0	0
262	2	2	-0.106	-21.03240442	17.75906375	46.23807593	1	0	0
263	2	3	0.053	20.68504982	16.09848673	47.11192645	0	0	0
264	2	3	0.053	21.14614929	15.73459121	45.5531204	0	0	0
265	2	2	-0.106	-21.08571095	16.28046607	46.42576913	1	0	0
266	2	3	0.053	-20.12344418	14.59099423	46.99091284	1	0	0
267	2	3	0.053	-19.54081197	16.06152352	47.88470688	1	0	0
268	2	2	0.104	-19.86512302	15.6357989	46.88656951	1	0	0
269	2	1	0.378	18.34647265	18.10002787	43.65999131	0	0	0
270	2	6	-0.699	12.34273118	14.60887036	42.07602006	0	0	0
271	2	5	-0.531	14.21247266	13.3237978	42.20724233	0	0	0
272	2	4	0.642	13.66743541	14.38120756	41.96897983	0	0	0
273	2	3	0.053	15.42562813	15.08503457	40.97298598	0	0	0
274	2	3	0.053	14.19035399	16.39302031	41.01746689	0	0	0
275	2	2	-0.106	14.62497752	15.58718748	41.60215801	0	0	0
276	2	3	0.053	14.35871103	16.52115654	43.41933429	0	0	0
277	2	3	0.053	15.64619551	15.25127921	43.4830052	0	0	0
278	2	2	-0.106	15.20469689	16.07089053	42.90509924	0	0	0
279	2	3	0.053	16.89302823	17.09274604	41.84744894	0	0	0
280	2	3	0.053	16.89019407	16.97055566	43.65779652	0	0	0
281	2	2	-0.106	16.24758139	17.20127199	42.78320904	0	0	0
282	2	3	0.053	15.11048214	18.73342802	42.10594347	0	0	0
283	2	3	0.053	15.31024849	18.83172219	43.85089925	0	0	0
284	2	2	-0.106	15.81897574	18.66162107	42.91740307	0	0	0
285	2	3	0.053	16.77690892	-18.69733225	42.99013696	0	1	0
286	2	3	0.053	17.47807256	19.46233064	41.63476072	0	0	0
287	2	2	0.104	17.05085485	19.57820056	42.77288346	0	0	0
288	2	1	0.378	11.82910075	15.501042	41.98027174	0	0	0
289	2	6	-0.699	12.93940006	12.4325733	37.14195423	0	0	0
290	2	5	-0.531	11.10842434	11.19338057	36.82221093	0	0	0
291	2	4	0.642	11.61452635	12.2136134	37.22711323	0	0	0
292	2	3	0.053	11.14597414	14.31949643	37.58472281	0	0	0
293	2	3	0.053	9.871019602	13.06862952	37.40129815	0	0	0
294	2	2	-0.106	10.80814077	13.2979383	37.86832239	0	0	0
295	2	3	0.053	10.42735528	12.01613815	39.49430519	0	0	0
296	2	3	0.053	11.95397247	12.95484541	39.61071116	0	0	0
297	2	2	-0.106	10.88707558	13.00597399	39.36756372	0	0	0
298	2	3	0.053	9.235669226	14.21811388	39.73826072	0	0	0
299	2	3	0.053	10.76800585	14.93503432	40.10480257	0	0	0
300	2	2	-0.106	10.20071801	14.00185157	40.23453884	0	0	0
301	2	3	0.053	9.576837171	14.34175007	42.36428802	0	0	0
302	2	3	0.053	9.489102472	12.75600363	41.79666252	0	0	0
303	2	2	-0.106	10.11815697	13.62698888	41.75589077	0	0	0
304	2	3	0.053	11.97495298	12.48555398	41.98472754	0	0	0
305	2	3	0.053	11.39891926	13.42614117	43.36708487	0	0	0
306	2	2	0.104	11.50643955	13.46615164	42.31314949	0	0	0
307	2	1	0.378	13.42790967	13.25180729	37.53606767	0	0	0
308	2	6	-0.699	20.38211477	13.92620857	37.4012438	0	0	0
309	2	5	-0.531	19.44242147	15.18886777	38.99090786	0	0	0
310	2	4	0.642	19.49905556	14.1661496	38.33914276	0	0	0
311	2	3	0.053	18.71713297	12.16244504	38.95679912	0	0	0
312	2	3	0.053	17.98845338	13.56801351	39.5657466	0	0	0
313	2	2	-0.106	18.34965516	13.13252485	38.67067781	0	0	0
314	2	3	0.053	16.97792712	14.18914839	37.43605387	0	0	0
315	2	3	0.053	17.5100296	12.79561142	36.61026184	0	0	0
316	2	2	-0.106	17.27674019	13.11915467	37.64613106	0	0	0
317	2	3	0.053	15.31728644	13.12151412	38.55570059	0	0	0
318	2	3	0.053	16.1781705	11.60778948	38.78755508	0	0	0
319	2	2	-0.106	15.94484885	12.39501979	38.04929464	0	0	0
320	2	3	0.053	15.37730975	12.66024075	36.05828185	0	0	0
321	2	3	0.053	16.1164578	11.13122407	36.46407879	0	0	0
322	2	2	-0.106	15.36530106	11.87842681	36.7888771	0	0	0
323	2	3	0.053	13.83198557	10.59764481	37.69508154	0	0	0
324	2	3	0.053	13.4943326	10.78948373	35.97501008	0	0	0
325	2	2	0.104	13.91313066	11.32486286	36.86648136	0	0	0
326	2	1	0.378	20.54498025	12.98852727	37.06479961	0	0	0
327	2	6	-0.699	20.10491741	12.54952951	30.00806318	0	0	0
328	2	5	-0.531	-20.59929724	13.67475344	30.61597134	1	0	0
329	2	4	0.642	20.84955279	13.28198089	30.83648961	0	0	0
330	2	3	0.053	19.92454866	15.03474698	31.51831027	0	0	0
331	2	3	0.053	19.12449446	13.70504401	32.31506159	0	0	0
332	2	2	-0.106	20.1095078	14.03177526	31.97109267	0	0	0
333	2	3	0.053	-21.00795338	13.16504481	33.27192118	1	0	0
334	2	3	0.053	-20.59296473	14.71250367	32.75226036	1	0	0
335	2	2	-0.106	21.12153267	14.14408547	33.12683556	0	0	0
336	2	3	0.053	19.87359996	13.8289964	34.93028608	0	0	0
337	2	3	0.053	20.25738832	15.55220715	34.57557397	0	0	0
338	2	2	-0.106	20.62578445	14.49218316	34.54425934	0	0	0
339	2	3	0.053	-20.25361298	13.72812637	35.63626567	1	0	0
340	2	3	0.053	-20.22032815	15.52596315	35.1709403	1	0	0
341	2	2	-0.106	-20.83035326	14.64491793	35.56794532	1	0	0
342	2	3	0.053	20.78079853	15.94577115	37.06227845	0	0	0
343	2	3	0.053	-20.56431165	15.2076333	37.65136061	1	0	0
344	2	2	0.104	21.25785318	14.98718426	36.96297358	0	0	0
345	2	1	0.378	19.1038689	12.70844805	30.033678	0	0	0
346	2	6	-0.699	16.89245836	13.9003487	24.51743107	0	0	0
347	2	5	-0.531	17.01476542	11.869344	23.52000355	0	0	0
348	2	4	0.642	16.86674144	12.55162585	24.53710961	0	0	0
349	2	3	0.053	16.05309098	12.20348002	26.60390268	0	0	0
350	2	3	0.053	16.47728092	10.85353857	25.60730558	0	0	0
351	2	2	-0.106	16.7948143	11.84326838	25.89835218	0	0	0
352	2	3	0.053	18.93644401	11.54063747	25.71580956	0	0	0
353	2	3	0.053	18.4024871	12.94128443	26.73543454	0	0	0
354	2	2	-0.106	18.20397015	11.87748326	26.40962794	0	0	0
355	2	3	0.053	18.0557245	10.05542235	27.73983492	0	0	0
356	2	3	0.053	17.93912856	11.51180676	28.58139666	0	0	0
357	2	2	-0.106	18.44120687	11.03224916	27.69513876	0	0	0
358	2	3	0.053	20.13030241	10.24393351	28.7740247	0	0	0
359	2	3	0.053	20.38655987	10.66397308	27.1255985	0	0	0
360	2	2	-0.106	19.93278425	11.01812197	28.0056471	0	0	0
361	2	3	0.053	20.44291601	13.26529595	28.11903672	0	0	0
362	2	3	0.053	-20.87773116	12.12764867	28.63601974	1	0	0
363	2	2	0.104	20.61197686	12.29749928	28.62144353	0	0	0
364	2	1	0.378	16.71286788	14.46872309	25.36297238	0	0	0
365	2	1	0.378	-18.8373332	13.37175189	21.67962081	1	0	0
366	2	6	-0.867	-19.43674584	13.84688227	22.3658217	1	0	0
367	2	5	-0.531	-20.3745709	11.92726312	23.17806508	1	0	0
368	2	4	0.642	-20.2651806	13.15180154	23.21887745	1	0	0
369	2	3	0.053	20.98830192	13.38533399	24.91741525	0	0	0
370	2	3	0.053	-20.52012487	14.76827679	24.85171671	1	0	0
371	2	2	-0.106	-21.04067739	14.02318379	24.23408152	1	0	0
372	2	3	0.053	20.95290312	15.40460773	22.64327255	0	0	0
373	2	3	0.053	19.94518902	13.95372835	22.69584761	0	0	0
374	2	2	-0.106	20.42901171	14.72181721	23.32128053	0	0	0
375	2	3	0.053	19.97777749	16.36460071	24.5744136	0	0	0
376	2	3	0.053	19.25820259	14.80575176	25.10654492	0	0	0
377	2	2	-0.106	19.45731105	15.47778727	24.22543195	0	0	0
378	2	3	0.053	17.52266876	16.58031368	24.16962086	0	0	0
379	2	3	0.053	18.33568268	16.34911209	22.55128703	0	0	0
380	2	2	-0.106	18.14273215	15.82824052	23.54361648	0	0	0
381	2	3	0.053	17.82341979	13.885994	22.65351812	0	0	0
382	2	3	0.053	16.3987393	15.04595198	22.78436207	0	0	0
383	2	2	0.104	17.26185873	14.626157	23.30263295	0	0	0
384	2	1	0.378	-19.04793411	14.74646456	22.53159589	1	0	0
385	3	1	0.378	-14.01138539	3.137035079	43.17532886	1	0	0
386	3	2	0.104	-16.20367961	9.089946485	42.30986305	1	0	0
387	3	3	0.053	-16.89124452	9.656265403	42.91407917	1	0	0
388	3	3	0.053	-15.19214131	9.560213507	42.29281807	1	0	0
389	3	2	-0.106	-15.99542556	7.722680678	42.94289891	1	0	0
390	3	3	0.053	-15.85638636	7.726956637	44.04395955	1	0	0
391	3	3	0.053	-16.94084154	7.202632769	42.89690417	1	0	0
392	3	2	-0.106	-14.85933683	6.921955227	42.33853351	1	0	0
393	3	3	0.053	-13.90375611	7.561016678	42.52964331	1	0	0
394	3	3	0.053	-14.83846399	7.005403872	41.24116604	1	0	0
395	3	2	-0.106	-14.68341376	5.434966849	42.63411185	1	0	0
396	3	3	0.053	-13.65700092	5.25176177	42.31340991	1	0	0
397	3	3	0.053	-14.9001157	5.253155569	43.69258701	1	0	0
398	3	2	-0.106	-15.55602473	4.632975092	41.65030852	1	0	0
399	3	3	0.053	-16.49948732	5.03491214	41.28799239	1	0	0
400	3	3	0.053	-14.88677479	4.417923175	40.81743282	1	0	0
401	3	4	0.642	-16.01524089	3.394474874	42.48444745	1	0	0
402	3	5	-0.531	-17.15363996	3.002959375	42.56324299	1	0	0
403	3	6	-0.867	-14.99361006	2.774474596	43.14779561	1	0	0
404	3	1	0.378	-15.13551904	1.917558397	43.64751067	1	0	0