LAMMPS data file via write_data, version 23 Jun 2022, timestep = 1400000

10880 atoms
8 atom types
7640 bonds
9 bond types
14400 angles
18 angle types
20560 dihedrals
23 dihedral types
8800 impropers
13 improper types

-21.3 21.3 xlo xhi
-19.67555 19.67555 ylo yhi
-30.72 115 zlo zhi

Masses

1 1.008
2 12.01115
3 1.00797
4 12.01115
5 15.9994
6 14.01
7 12.01115
8 12.01115

Bond Coeffs # class2

1 0.9959 495.829 -1092.72 1441.13
2 1.101 345 -691.89 844.6
3 1.53 299.67 -501.77 679.81
4 1.4632 319.159 -586.324 961.414
5 1.5202 253.707 -423.037 396.9
6 1.202 851.14 -1918.49 2160.77
7 1.366 390.678 -768.38 923.242
8 1.53 299.67 -501.77 679.81
9 1.101 345 -691.89 844.6

Angle Coeffs # class2

1 107.66 39.641 -12.921 -2.4318
2 110.77 41.453 -10.604 5.129
3 108.533 66.9202 -13.648 10.328
4 109.83 76.8966 -48.7334 18.0162
5 112.67 39.516 -7.443 -9.5583
6 108.53 51.9747 -9.4851 -10.9985
7 107.734 40.6099 -28.8121 0
8 123.145 55.5431 -17.2123 0.1348
9 116.926 39.4193 -10.9945 -8.7733
10 125.532 101.876 -41.8094 0
11 122.948 40.482 -16.2028 0
12 122.373 27.6081 -10.3291 9.28
13 120.135 29.2218 -14.1448 7.238
14 122.752 60.4647 -29.6188 0
15 110.77 41.453 -10.604 5.129
16 107.66 39.641 -12.921 -2.4318
17 110.77 41.453 -10.604 5.129
18 112.67 39.516 -7.443 -9.5583

BondBond Coeffs

1 5.3316 1.101 1.101
2 3.3872 1.53 1.101
3 16.1478 1.101 1.4632
4 11.1849 1.53 1.4632
5 0 1.53 1.53
6 5.4199 1.53 1.5202
7 0.7115 1.101 1.5202
8 46.0685 1.5202 1.202
9 56.4788 1.5202 1.366
10 116.945 1.202 1.366
11 8.6253 0.9959 1.366
12 10.2817 0.9959 0.9959
13 5.2897 0.9959 1.4632
14 27.8556 1.4632 1.366
15 3.3872 1.53 1.101
16 5.3316 1.101 1.101
17 3.3872 1.101 1.53
18 0 1.53 1.53

BondAngle Coeffs

1 18.103 18.103 1.101 1.101
2 20.754 11.421 1.53 1.101
3 12.6574 48.1889 1.101 1.4632
4 18.3324 46.2073 1.53 1.4632
5 8.016 8.016 1.53 1.53
6 18.1678 15.8758 1.53 1.5202
7 9.1765 12.4632 1.101 1.5202
8 34.9982 37.1298 1.5202 1.202
9 25.3712 6.0803 1.5202 1.366
10 46.1093 32.8758 1.202 1.366
11 0 0 0.9959 1.366
12 11.578 11.578 0.9959 0.9959
13 10.9972 13.8967 0.9959 1.4632
14 0 0 1.4632 1.366
15 20.754 11.421 1.53 1.101
16 18.103 18.103 1.101 1.101
17 11.421 20.754 1.101 1.53
18 8.016 8.016 1.53 1.53

Dihedral Coeffs # class2

1 -0.1432 0 0.0617 0 -0.1083 0
2 0 0 0.0316 0 -0.1681 0
3 0 0 0 0 -0.1441 0
4 0 0 0 0 -0.1441 0
5 0 0 0 0 -0.3263 0
6 0 0 0 0 -0.2263 0
7 0 0 0 0 -0.3263 0
8 0 0 0 0 -0.2263 0
9 0 0 0.0514 0 -0.143 0
10 0.0972 0 0.0722 0 -0.2581 0
11 -0.0228 0 0.028 0 -0.1863 0
12 0.0442 0 0.0292 0 0.0562 0
13 0.1693 0 -0.009 0 -0.0687 0
14 -0.1804 0 0.0012 0 0.0371 0
15 0.1693 0 -0.009 0 -0.0687 0
16 -0.8236 0 2.1467 0 -0.2142 0
17 0 0 2.0521 0 0 0
18 -0.7532 0 2.7392 0 0.0907 0
19 0 0 2.0521 0 0 0
20 -0.1432 0 0.0617 0 -0.1083 0
21 0 0 0.0316 0 -0.1681 0
22 0 0 0.0316 0 -0.1681 0
23 0 0 0.0514 0 -0.143 0

AngleAngleTorsion Coeffs

1 -12.564 110.77 110.77
2 -16.164 112.67 110.77
3 0 110.77 109.83
4 0 112.67 109.83
5 0 108.533 120.135
6 0 108.533 122.752
7 0 109.83 120.135
8 0 109.83 122.752
9 -22.045 112.67 112.67
10 -0.3801 112.67 108.53
11 -5.3624 110.77 108.53
12 -8.019 108.53 123.145
13 0 108.53 116.926
14 -15.3496 107.734 123.145
15 0 107.734 116.926
16 0 116.926 122.948
17 0 125.532 122.948
18 0 116.926 122.752
19 0 125.532 122.752
20 -12.564 110.77 110.77
21 -16.164 112.67 110.77
22 -16.164 110.77 112.67
23 -22.045 112.67 112.67

EndBondTorsion Coeffs

1 0.213 0.312 0.0777 0.213 0.312 0.0777 1.101 1.101
2 0.2486 0.2422 -0.0925 0.0814 0.0591 0.2219 1.53 1.101
3 0 0 0 0 0 0 1.101 1.4632
4 0 0 0 0 0 0 1.53 1.4632
5 0 0 0 0 0 0 1.101 0.9959
6 0 0 0 0 0 0 1.101 1.366
7 0 0 0 0 0 0 1.53 0.9959
8 0 0 0 0 0 0 1.53 1.366
9 -0.0732 0 0 -0.0732 0 0 1.53 1.53
10 0.0062 -0.0002 0.0036 0.0055 0.006 -0.0009 1.53 1.5202
11 -0.0097 -0.0315 -0.0755 -0.0204 0.3628 -0.4426 1.101 1.5202
12 0.2654 0.0503 0.1046 -0.281 0.0816 -0.1522 1.53 1.202
13 0 0 0 0 0 0 1.53 1.366
14 1.2143 0.2831 0.3916 -0.2298 0.0354 0.3853 1.101 1.202
15 0 0 0 0 0 0 1.101 1.366
16 0 0 0 0 0 0 1.5202 0.9959
17 0 0 0 0 0 0 1.202 0.9959
18 0 0 0 0 0 0 1.5202 1.4632
19 0 0 0 0 0 0 1.202 1.4632
20 0.213 0.312 0.0777 0.213 0.312 0.0777 1.101 1.101
21 0.2486 0.2422 -0.0925 0.0814 0.0591 0.2219 1.53 1.101
22 0.0814 0.0591 0.2219 0.2486 0.2422 -0.0925 1.101 1.53
23 -0.0732 0 0 -0.0732 0 0 1.53 1.53

MiddleBondTorsion Coeffs

1 -14.261 -0.5322 -0.4864 1.53
2 -14.879 -3.6581 -0.3138 1.53
3 0 0 0 1.53
4 0 0 0 1.53
5 0 0 0 1.4632
6 0 0 0 1.4632
7 0 0 0 1.4632
8 0 0 0 1.4632
9 -17.787 -7.1877 0 1.53
10 -1.5945 0.2267 -0.6911 1.53
11 -3.5039 1.2458 -0.761 1.53
12 0.3388 -0.1096 0.1219 1.5202
13 -2.0061 -1.5432 1.9095 1.5202
14 0.2359 0.9139 0.9594 1.5202
15 0.2296 -0.4149 0.8003 1.5202
16 -0.5298 4.7356 -1.0637 1.366
17 0 0 0 1.366
18 -9.2512 3.4093 -2.8365 1.366
19 0 0 0 1.366
20 -14.261 -0.5322 -0.4864 1.53
21 -14.879 -3.6581 -0.3138 1.53
22 -14.879 -3.6581 -0.3138 1.53
23 -17.787 -7.1877 0 1.53

BondBond13 Coeffs

1 0 1.101 1.101
2 0 1.53 1.101
3 0 1.101 1.4632
4 0 1.53 1.4632
5 0 1.101 0.9959
6 0 1.101 1.366
7 0 1.53 0.9959
8 0 1.53 1.366
9 0 1.53 1.53
10 0 1.53 1.5202
11 0 1.101 1.5202
12 0 1.53 1.202
13 0 1.53 1.366
14 0 1.101 1.202
15 0 1.101 1.366
16 0 1.5202 0.9959
17 0 1.202 0.9959
18 0 1.5202 1.4632
19 0 1.202 1.4632
20 0 1.101 1.101
21 0 1.53 1.101
22 0 1.101 1.53
23 0 1.53 1.53

AngleTorsion Coeffs

1 -0.8085 0.5569 -0.2466 -0.8085 0.5569 -0.2466 110.77 110.77
2 -0.2454 0 -0.1136 0.3113 0.4516 -0.1988 112.67 110.77
3 0 0 0 0 0 0 110.77 109.83
4 0 0 0 0 0 0 112.67 109.83
5 0 0 0 0 0 0 108.533 120.135
6 0 0 0 0 0 0 108.533 122.752
7 0 0 0 0 0 0 109.83 120.135
8 0 0 0 0 0 0 109.83 122.752
9 0.3886 -0.3139 0.1389 0.3886 -0.3139 0.1389 112.67 112.67
10 -0.2607 0.3203 -0.2283 0.0515 -0.0674 -0.0474 112.67 108.53
11 0.0162 1.4211 -1.4092 -0.7466 -0.9448 -0.6321 110.77 108.53
12 0.0885 -1.3703 -0.5452 0.675 0.5965 0.6725 108.53 123.145
13 0 0 0 0 0 0 108.53 116.926
14 9.1299 -0.4847 0.3582 -1.4946 0.7308 -0.2083 107.734 123.145
15 0 0 0 0 0 0 107.734 116.926
16 0 0 0 0 0 0 116.926 122.948
17 0 0 0 0 0 0 125.532 122.948
18 0 0 0 0 0 0 116.926 122.752
19 0 0 0 0 0 0 125.532 122.752
20 -0.8085 0.5569 -0.2466 -0.8085 0.5569 -0.2466 110.77 110.77
21 -0.2454 0 -0.1136 0.3113 0.4516 -0.1988 112.67 110.77
22 0.3113 0.4516 -0.1988 -0.2454 0 -0.1136 110.77 112.67
23 0.3886 -0.3139 0.1389 0.3886 -0.3139 0.1389 112.67 112.67

Improper Coeffs # class2

1 24.3329 0
2 -6.5636 0
3 -5.3119 0
4 0 0
5 0 0
6 0 0
7 0 0
8 0 0
9 0 0
10 0 0
11 0 0
12 0 0
13 0 0

AngleAngle Coeffs

1 0 0 0 123.145 125.532 116.926
2 0 0 0 122.373 122.948 122.948
3 0 0 0 120.135 122.752 122.948
4 0.2738 -0.4825 0.2738 110.77 107.66 110.77
5 0 0 0 107.66 108.533 108.533
6 0 0 0 110.77 108.533 109.83
7 -1.3199 -1.3199 0.1184 112.67 110.77 110.77
8 1.0827 -1.8202 2.0403 110.77 107.734 108.53
9 -3.3867 -3.3867 -3.4976 107.66 107.734 107.734
10 0.2738 -0.4825 0.2738 110.77 107.66 110.77
11 -0.3157 -0.3157 -0.3157 107.66 107.66 107.66
12 0.2738 0.2738 -0.4825 107.66 110.77 110.77
13 0.1184 -1.3199 -1.3199 110.77 110.77 112.67

Atoms # full

10605 41 8 0 -20.212372899095 -18.68461493192255 -23.531201318286538 0 -1 0
10606 41 8 0 -18.792429585867833 -18.68387879276246 -23.532791579052684 0 -1 0
10604 41 8 0 -20.922482674449576 -17.45502890589837 -23.527474491788755 0 -1 0
10607 41 8 0 -18.08236108591562 -17.454406735987188 -23.530745517633356 0 -1 0
10608 41 8 0 -16.662614122493014 -17.454215434541357 -23.535008088393706 0 -1 0
10609 41 8 0 -15.952762599638518 -18.68396740976422 -23.540788392736964 0 -1 0
10645 41 8 0 -20.21219022811515 -16.22548134014792 -23.52446811050274 0 -1 0
10646 41 8 0 -18.792356824948982 -16.224878604494155 -23.526267427905243 0 -1 0
10649 41 8 0 -15.952084653409187 -16.224811730084436 -23.536523204002233 0 -1 0
10644 41 8 0 -20.922115525640912 -14.99596209065396 -23.52277561418291 0 -1 0
10610 41 8 0 -14.532814441700857 -18.684271049273754 -23.545647003513253 0 -1 0
10650 41 8 0 -14.532021766982442 -16.224920892773476 -23.54256792541893 0 -1 0
10647 41 8 0 -18.082240027783346 -14.995199865116291 -23.52643985572113 0 -1 0
10648 41 8 0 -16.66221168427645 -14.995117786537055 -23.531630227584728 0 -1 0
10685 41 8 0 -20.21251452700004 -13.766146431746858 -23.520544868031692 0 -1 0
10686 41 8 0 -18.79239911700318 -13.765633482284098 -23.523400795170122 0 -1 0
10689 41 8 0 -15.952276407591453 -13.765120144563092 -23.532240789132175 0 -1 0
10690 41 8 0 -14.532313405253987 -13.76481981757238 -23.540808953085385 0 -1 0
9874 41 8 0 -19.8038132517038 -17.817006463357444 -20.045817703779168 1 1 0
9835 41 8 0 -19.10695075351156 -19.067943081609076 -19.995420702504717 1 1 0
9836 41 8 0 -17.66552989180409 -19.12552069081205 -20.059298452185388 1 1 0
9877 41 8 0 -16.95160439368404 -17.82905917795677 -20.21336637219034 1 1 0
9876 41 8 0 -17.680300990403172 -16.617107710905447 -20.212106027816205 1 1 0
9875 41 8 0 -19.081845197253397 -16.597512361231335 -20.125412528157362 1 1 0
9878 41 8 0 -15.591297645780747 -17.903981626407045 -20.180584850209918 1 1 0
9914 41 8 0 -19.83848847385452 -15.37792873912269 -20.158734947225717 1 1 0
9917 41 8 0 -16.98504346277086 -15.348710711238773 -20.222953326957114 1 1 0
9918 41 8 0 -15.579089941136083 -15.380250600093904 -20.191176980577122 1 1 0
9915 41 8 0 -19.097907556222992 -14.122450366842061 -20.189119740200347 1 1 0
9916 41 8 0 -17.693808988134524 -14.117041098299257 -20.086361895207183 1 1 0
9879 41 8 0 -14.841058789300813 -16.639030492438916 -20.093700662204935 1 1 0
9839 41 8 0 -14.867498911403034 -19.108535635651815 -20.181035293585456 1 1 0
9919 41 8 0 -14.876986128032087 -14.177946393021733 -20.160797342299784 1 1 0
9913 41 8 0 -21.259012444857337 -15.422299580159395 -20.078898413696926 1 1 0
9873 41 8 0 -21.252199861100145 -17.8360367647701 -20.02775254635509 1 1 0
9880 41 8 0 -13.44454919374337 -16.6222799356423 -20.09647464053948 1 1 0
9840 41 8 0 -13.461967580257369 -19.134271758962942 -20.14012637503474 1 1 0
10613 41 8 0 -11.692189161403148 -18.684232328913772 -23.552948120454456 0 -1 0
10614 41 8 0 -10.272246519897687 -18.683946321842853 -23.558900794367418 0 -1 0
10612 41 8 0 -12.402224244028275 -17.454377968024453 -23.550986460757358 0 -1 0
10611 41 8 0 -13.822215548635555 -17.454810418325952 -23.546873771099474 0 -1 0
10615 41 8 0 -9.562260698866359 -17.453857920005674 -23.56442468247328 0 -1 0
10653 41 8 0 -11.692113390248807 -16.224502540701096 -23.55587524478099 0 -1 0
10654 41 8 0 -10.272282481710663 -16.224364738775606 -23.56230468167304 0 -1 0
10616 41 8 0 -8.14236371254559 -17.45362981013986 -23.569739047948435 0 -1 0
10651 41 8 0 -13.822371240942713 -14.99479077630896 -23.545826704784794 0 -1 0
10652 41 8 0 -12.402458182900622 -14.994941647351098 -23.553177887596952 0 -1 0
10655 41 8 0 -9.56252825100226 -14.994591124841566 -23.564217264686395 0 -1 0
10693 41 8 0 -11.69240556290372 -13.765332976067217 -23.554854502645572 0 -1 0
10694 41 8 0 -10.272674615186949 -13.765089591266312 -23.558918188457746 0 -1 0
10656 41 8 0 -8.142680745007175 -14.993976404771507 -23.569745705652473 0 -1 0
10617 41 8 0 -7.432145167842818 -18.68292596650744 -23.568004146501504 0 -1 0
10657 41 8 0 -7.432717492198438 -16.223602956409138 -23.575358981897413 0 -1 0
10697 41 8 0 -7.4325179047738725 -13.764667447557356 -23.568212692946116 0 -1 0
9841 41 8 0 -12.772396962791667 -17.887848028433712 -20.13589091345485 0 1 0
9842 41 8 0 -11.331519235272525 -17.879972041656874 -20.248754010486905 0 1 0
9803 41 8 0 -10.649051881035538 -19.105280733657054 -20.1809907869855 0 1 0
9843 41 8 0 -10.579941002607317 -16.610412818363464 -20.122388372295347 0 1 0
9804 41 8 0 -9.212688015043195 -19.071699155708107 -20.219951460032213 0 1 0
9844 41 8 0 -9.193137936982584 -16.600644835354682 -20.138014133250458 0 1 0
9845 41 8 0 -8.490093994923548 -17.84875736932469 -20.20667075717305 0 1 0
9881 41 8 0 -12.73250159275044 -15.39651028049426 -20.147710850205875 0 1 0
9882 41 8 0 -11.319392945826419 -15.396892424226577 -20.175939915679088 0 1 0
9885 41 8 0 -8.483763903095683 -15.434017934850054 -20.110391990901938 0 1 0
9884 41 8 0 -9.206895816120575 -14.20075019318536 -20.09334522603304 0 1 0
9920 41 8 0 -13.452915725694242 -14.146046638790832 -20.079003941815778 1 1 0
9883 41 8 0 -10.606647901560223 -14.181293797709857 -20.049643744899928 0 1 0
10034 41 8 0 -19.802754517847145 -7.988843128220467 -20.105249524375363 1 1 0
9954 41 8 0 -19.81071366973775 -12.911587026893109 -20.12969693269665 1 1 0
9955 41 8 0 -19.12865446231752 -11.684546506665718 -20.110254643764037 1 1 0
10684 41 8 0 -20.92231536127378 -12.536136862024042 -23.520774903389558 0 -1 0
10687 41 8 0 -18.082629694686382 -12.535556654598139 -23.525097049919104 0 -1 0
10688 41 8 0 -16.66288502886679 -12.535740803847162 -23.52861310902144 0 -1 0
10725 41 8 0 -20.212439720286937 -11.30598993212736 -23.521079215121514 0 -1 0
10726 41 8 0 -18.79267182000123 -11.305815445623333 -23.522682817206856 0 -1 0
10729 41 8 0 -15.953049665720481 -11.305889973098207 -23.532891320329174 0 -1 0
10724 41 8 0 -20.9228888937719 -10.076630683720067 -23.521103145947226 0 -1 0
10727 41 8 0 -18.083104239421257 -10.075959171960887 -23.5251143253923 0 -1 0
10728 41 8 0 -16.66311648636247 -10.076069499573379 -23.528841496047747 0 -1 0
10730 41 8 0 -14.533084318078272 -11.30508765895685 -23.539350560728952 0 -1 0
10765 41 8 0 -20.213207689674793 -8.846499431609246 -23.521472023585243 0 -1 0
10766 41 8 0 -18.79318081209653 -8.846300272255421 -23.523765058629746 0 -1 0
10767 41 8 0 -18.08357503602699 -7.616017221819623 -23.522354643888058 0 -1 0
10764 41 8 0 -20.92293516896289 -7.616490238158457 -23.518800470249637 0 -1 0
10768 41 8 0 -16.66354667619968 -7.615813906932283 -23.524391864816877 0 -1 0
10769 41 8 0 -15.953522349970445 -8.845841890711553 -23.527081314159027 0 -1 0
10770 41 8 0 -14.533293233039615 -8.845738964122662 -23.529052490314946 0 -1 0
9956 41 8 0 -17.727091090906146 -11.692632155047159 -20.039743464694073 1 1 0
9957 41 8 0 -17.027290409275025 -12.90670747261938 -20.084294135204757 1 1 0
9997 41 8 0 -16.974316701853503 -10.492608735088673 -20.019512819831952 1 1 0
9994 41 8 0 -19.82632084203382 -10.415548617198414 -20.031372466414098 1 1 0
9958 41 8 0 -15.64095884965618 -12.946475714798513 -20.067239530943322 1 1 0
9998 41 8 0 -15.582359938545675 -10.540918579057493 -19.968523328532886 1 1 0
9996 41 8 0 -17.65909981277055 -9.224895458965827 -20.051254628563928 1 1 0
9995 41 8 0 -19.080048892978105 -9.222021753320202 -19.93887686364894 1 1 0
10037 41 8 0 -16.967100270191626 -7.993335674741581 -20.133456667354494 1 1 0
10038 41 8 0 -15.574682027990193 -8.045148296194075 -19.968089802847857 1 1 0
9999 41 8 0 -14.840220047030366 -9.292655744677361 -19.964993141535736 1 1 0
9959 41 8 0 -14.86899205848471 -11.765315907821254 -19.85895184614951 1 1 0
10036 41 8 0 -17.66638648719207 -6.796994027103612 -19.95765220112675 1 1 0
10039 41 8 0 -14.890649459744845 -6.811377481759236 -19.982992262895706 1 1 0
10035 41 8 0 -19.072059003662364 -6.778550039383647 -20.074757492005958 1 1 0
9993 41 8 0 -21.211708006473128 -10.440335609403045 -20.1576211540138 1 1 0
9953 41 8 0 -21.263769102575054 -12.910769285958867 -20.142877510044503 1 1 0
10033 41 8 0 -21.221070969808626 -7.988837001840665 -20.08674344136616 1 1 0
10005 41 8 0 -8.470815283073312 -8.07911445771855 -20.125248829131326 0 1 0
10001 41 8 0 -12.709503207839113 -8.081122179854516 -19.77063732976877 0 1 0
9960 41 8 0 -13.442800230483948 -11.765495923243394 -19.887165884110928 1 1 0
10000 41 8 0 -13.39950275300937 -9.315202100189648 -19.832915922595724 1 1 0
10002 41 8 0 -11.28933010571297 -8.040778561542956 -19.945901168713057 0 1 0
9922 41 8 0 -11.328782288957573 -12.999237690260617 -19.90605143154893 0 1 0
9921 41 8 0 -12.731569616183128 -13.000297078408245 -19.94662702003825 0 1 0
10692 41 8 0 -12.402608098800865 -12.535337045874067 -23.55084591228191 0 -1 0
10691 41 8 0 -13.822781343472558 -12.53479298445296 -23.544669264504698 0 -1 0
10695 41 8 0 -9.562911278145197 -12.535083466724078 -23.557328178794585 0 -1 0
10733 41 8 0 -11.692707074145753 -11.30508717517337 -23.54956748984161 0 -1 0
10734 41 8 0 -10.272770434877483 -11.305210163286372 -23.552178721514725 0 -1 0
10696 41 8 0 -8.142920266256512 -12.535151157737172 -23.560424314812227 0 -1 0
10776 41 8 0 -8.14252004456297 -7.6161642543565815 -23.5454358054053 0 -1 0
10732 41 8 0 -12.402995246336713 -10.0751646431294 -23.54329096498146 0 -1 0
10731 41 8 0 -13.823141929191396 -10.075428821925506 -23.53757937388428 0 -1 0
10735 41 8 0 -9.562840798477362 -10.075395460707512 -23.54924087074302 0 -1 0
10773 41 8 0 -11.692770228960025 -8.84535692455904 -23.539853201573894 0 -1 0
10774 41 8 0 -10.2729647897182 -8.845795473674992 -23.54444450303407 0 -1 0
10772 41 8 0 -12.403044246513812 -7.615770063120047 -23.531585875905385 0 -1 0
10771 41 8 0 -13.823007495512549 -7.615964913848775 -23.525364372184985 0 -1 0
10775 41 8 0 -9.56257569241273 -7.616208019051564 -23.542665598400436 0 -1 0
10736 41 8 0 -8.142658162445043 -10.075509668629035 -23.552524201944482 0 -1 0
10737 41 8 0 -7.432463217133337 -11.30543449852899 -23.558327172479164 0 -1 0
10777 41 8 0 -7.432450520269307 -8.845767698492502 -23.552461197704623 0 -1 0
9923 41 8 0 -10.621498468690119 -11.778293064235802 -19.95518471176457 0 1 0
9962 41 8 0 -11.29881579917143 -10.508001649861402 -19.950191767292583 0 1 0
9961 41 8 0 -12.725485076984798 -10.544795453532782 -19.876145439180107 0 1 0
9924 41 8 0 -9.189857213916282 -11.748301507053581 -20.057772128759893 0 1 0
9925 41 8 0 -8.465104657246755 -12.974377149851051 -19.995671213277877 0 1 0
9965 41 8 0 -8.461531047906474 -10.541867974295803 -20.14010973989472 0 1 0
9964 41 8 0 -9.189007907904417 -9.307717994648748 -20.153204001294203 0 1 0
9963 41 8 0 -10.587044478445206 -9.265833684174277 -20.133331433251346 0 1 0
10040 41 8 0 -13.483054622372254 -6.865963806835233 -19.85683294656501 1 1 0
10003 41 8 0 -10.575369219669389 -6.845769832774635 -19.923625230685623 0 1 0
10004 41 8 0 -9.16692951481823 -6.827508190780487 -20.028301528873417 0 1 0
9569 41 8 0 -16.47774773214186 -18.940187414397265 -16.83835899486348 -1 2 0
9566 41 8 0 -19.287217860736142 -18.95536523596252 -16.64650196548594 -1 2 0
8738 41 8 0 -17.56783680296571 -18.99704134474896 -13.3945595701749 1 1 0
8739 41 8 0 -16.867718031748943 -17.763052989390832 -13.387747004609016 1 1 0
9567 41 8 0 -18.589775739005834 -17.74015203367091 -16.608575858749198 -1 2 0
9568 41 8 0 -17.15818214245924 -17.716256013037107 -16.674154547818365 -1 2 0
8966 41 8 0 -19.298544063824004 -16.528230446090337 -16.771740446989675 -1 1 0
8969 41 8 0 -16.45471465573448 -16.51360913318254 -16.648557930465536 -1 1 0
8965 41 8 0 -20.720607097492152 -16.481156958752354 -16.701843022272485 -1 1 0
9565 41 8 0 -20.732167422992138 -18.93280643133812 -16.675962095447165 -1 2 0
8737 41 8 0 -19.038360648667908 -19.005907257763912 -13.397522109182958 1 1 0
8736 41 8 0 -19.738643967681806 -17.776664158412764 -13.360793310245935 1 1 0
8778 41 8 0 -17.571118825051226 -16.491082666102443 -13.217855722290116 1 1 0
8777 41 8 0 -19.007942222030753 -16.537180063059456 -13.24430053321447 1 1 0
8967 41 8 0 -18.57983263277561 -15.298303357716227 -16.82312208940188 -1 1 0
8968 41 8 0 -17.173709447724782 -15.292372841718255 -16.70787355383605 -1 1 0
8779 41 8 0 -16.866899500140907 -15.329076854676089 -13.188786152568474 1 1 0
8776 41 8 0 -19.67054704170894 -15.298051092562625 -13.164973092515014 1 1 0
8740 41 8 0 -15.43615992211424 -17.72003258177821 -13.297962570659019 1 1 0
8780 41 8 0 -15.444191681697834 -15.307244244514743 -13.2175426202457 1 1 0
8817 41 8 0 -18.98394806861764 -14.075610354707226 -13.065365705094244 1 1 0
9570 41 8 0 -15.059590149055444 -18.983566479920114 -16.86355927704673 -1 2 0
8970 41 8 0 -15.047763472290486 -16.51052368979941 -16.684788118964658 -1 1 0
8781 41 8 0 -14.726294342476425 -16.517524267023013 -13.242491649930969 1 1 0
9009 41 8 0 -16.43428703148153 -14.047208076613318 -16.699166027786376 -1 1 0
9006 41 8 0 -19.286989852552708 -14.063955696106543 -16.76857539641208 -1 1 0
9005 41 8 0 -20.69552034393886 -14.023084772687486 -16.751208628543406 -1 1 0
8821 41 8 0 -14.731777391753885 -14.05721726875565 -13.18760826938265 1 1 0
8818 41 8 0 -17.570373082756582 -14.107461387131847 -13.114823294043106 1 1 0
9010 41 8 0 -15.024284004641403 -14.075852356814082 -16.660790111649987 -1 1 0
8741 41 8 0 -14.781133915950118 -18.988228938146158 -13.338017822590007 1 1 0
8775 41 8 0 -21.0609272869177 -15.339900539131982 -13.144077016291451 1 1 0
8735 41 8 0 -21.11805562228573 -17.72413022461122 -13.15754583282264 1 1 0
9571 41 8 0 -14.31555278473762 -17.772796474732743 -16.905191871008423 -1 2 0
8971 41 8 0 -14.300891519868166 -15.291038612266133 -16.704446099529523 -1 1 0
9577 41 8 0 -7.868419775497062 -18.877804402985426 -16.62505973114312 -1 2 0
8976 41 8 0 -8.595368766254683 -15.28585220021909 -16.623045639947357 -1 1 0
8742 41 8 0 -13.362466339248078 -18.991854162921868 -13.252255107134998 1 1 0
8743 41 8 0 -12.604426742049586 -17.762557226912072 -13.107426989590797 1 1 0
8744 41 8 0 -11.157905077332657 -17.75547963041589 -13.259945124444965 1 1 0
9572 41 8 0 -12.876469346035085 -17.76611237876467 -16.845018401770595 -1 2 0
9573 41 8 0 -12.180410498057173 -18.975389321415715 -16.847878112349946 -1 2 0
9574 41 8 0 -10.747637683240907 -18.904989843693965 -16.652642068512833 -1 2 0
8745 41 8 0 -10.456565765559091 -18.972228464130957 -13.104296117949382 1 1 0
8746 41 8 0 -9.048045676737853 -18.950435220788815 -13.004818277917543 1 1 0
9575 41 8 0 -10.042389808798822 -17.68281911735938 -16.714945940593633 -1 2 0
8973 41 8 0 -12.158812063225772 -16.502600952472616 -16.791172266256236 -1 1 0
8974 41 8 0 -10.73786124175954 -16.468708063421783 -16.80877754919491 -1 1 0
8785 41 8 0 -10.466142615826193 -16.51325266285865 -13.247567556294735 1 1 0
8782 41 8 0 -13.313292975039726 -16.480031995472302 -13.226163198311456 1 1 0
8786 41 8 0 -9.058290656471682 -16.498693037163324 -13.159944872342017 1 1 0
8975 41 8 0 -10.013620054457686 -15.260629591510117 -16.746068208668625 -1 1 0
8972 41 8 0 -12.897714602717643 -15.282222928644387 -16.6338803037483 -1 1 0
8784 41 8 0 -11.165280793841022 -15.264130887602256 -13.278399811383691 1 1 0
8783 41 8 0 -12.58471812926608 -15.230116398794504 -13.275991831604575 1 1 0
9576 41 8 0 -8.611504112911181 -17.72229319098711 -16.703002196694435 -1 2 0
8787 41 8 0 -8.325278032439334 -15.25518431387891 -13.070386723765775 1 1 0
8747 41 8 0 -8.34030565722914 -17.745582067051625 -13.053738854506504 1 1 0
8826 41 8 0 -9.053651615066709 -14.019662943524933 -13.215601628791772 1 1 0
8825 41 8 0 -10.484831109619716 -14.02418190657732 -13.154565722070332 1 1 0
8822 41 8 0 -13.353177468359652 -14.039271650903252 -13.287870371185903 1 1 0
9013 41 8 0 -12.190269318746033 -14.010796146548675 -16.645901938598293 -1 1 0
9014 41 8 0 -10.788010451823551 -14.03106910473848 -16.63677689269213 -1 1 0
9017 41 8 0 -7.861888324586414 -14.053603381288628 -16.664638166885677 -1 1 0
8977 41 8 0 -7.926360191877121 -16.46408437605053 -16.52776004737847 -1 1 0
8855 41 8 0 -21.16793761812717 -10.343361279650713 -13.159124657006835 1 1 0
8819 41 8 0 -16.885027975521044 -12.837171350978636 -13.109689578882191 1 1 0
8820 41 8 0 -15.46708208522044 -12.871966104079855 -13.14998056455396 1 1 0
9007 41 8 0 -18.58661702397726 -12.863281781283797 -16.777666743211753 -1 1 0
8816 41 8 0 -19.702485739203457 -12.840288179827999 -13.127539070492249 1 1 0
8859 41 8 0 -16.92259479638857 -10.395615183896897 -13.081207035686688 1 1 0
9085 41 8 0 -20.626621971932714 -9.115075936858169 -16.51131163694814 -1 1 0
9045 41 8 0 -20.673698964529052 -11.546237554179735 -16.666896636658233 -1 1 0
9046 41 8 0 -19.23398598032108 -11.600205669574217 -16.760084610308244 -1 1 0
9008 41 8 0 -17.192419738921487 -12.820288814761028 -16.74214605918081 -1 1 0
8858 41 8 0 -17.57258181739738 -11.62154197018717 -13.092101105414232 1 1 0
9049 41 8 0 -16.390040298340793 -11.63165765923749 -16.550982487782587 -1 1 0
9048 41 8 0 -17.05670535334367 -10.353082206183098 -16.71617308139885 -1 1 0
9047 41 8 0 -18.52742483143604 -10.342378002408228 -16.683125655842915 -1 1 0
8857 41 8 0 -19.055920856672312 -11.5709173805933 -13.106301282494158 1 1 0
9086 41 8 0 -19.238131511218654 -9.105686311192462 -16.583612385490532 -1 1 0
8856 41 8 0 -19.750566397662624 -10.326600568916708 -13.080428706623568 1 1 0
9089 41 8 0 -16.38522546449118 -9.105643748705216 -16.52616105547606 -1 1 0
8898 41 8 0 -17.608654364692867 -9.117241589060999 -13.199537066016923 1 1 0
8897 41 8 0 -19.004199024723047 -9.096298769263482 -13.036295759000131 1 1 0
8860 41 8 0 -15.499121135019223 -10.350981077452044 -13.203615965275556 1 1 0
8896 41 8 0 -19.73856134116183 -7.8883754605036644 -12.984759617872431 1 1 0
9088 41 8 0 -17.147183993183926 -7.892067810060544 -16.564513180839963 -1 1 0
9087 41 8 0 -18.51119233992401 -7.843596378872653 -16.551910129694456 -1 1 0
8899 41 8 0 -16.871222538573793 -7.8942319036041 -13.164553903027803 1 1 0
8900 41 8 0 -15.456601286584583 -7.865383417050534 -13.194471123466952 1 1 0
8861 41 8 0 -14.769144149627046 -11.630935206436488 -13.177143939568063 1 1 0
8901 41 8 0 -14.757236415781511 -9.115601201309891 -13.109193553404465 1 1 0
9050 41 8 0 -14.963102697199544 -11.613867720825839 -16.535357737709138 -1 1 0
9090 41 8 0 -15.01360724348543 -9.142465156738897 -16.53293531459318 -1 1 0
8937 41 8 0 -18.968361184309273 -6.6321313663094665 -13.008884132348646 1 1 0
8938 41 8 0 -17.525917254986044 -6.6701008165741245 -12.99340939093029 1 1 0
8941 41 8 0 -14.737496870852482 -6.624675112332786 -13.120660374039922 1 1 0
8895 41 8 0 -21.146104664706836 -7.8674965052109815 -12.861687799120373 1 1 0
9126 41 8 0 -19.24635437337243 -6.601843176627671 -16.56901099235083 -1 1 0
9125 41 8 0 -20.643262966698554 -6.63952522439656 -16.46004051016575 -1 1 0
9129 41 8 0 -16.438592970312115 -6.640175455656141 -16.560435767812052 -1 1 0
9130 41 8 0 -15.028475723740966 -6.644422666734828 -16.515698849820577 -1 1 0
8815 41 8 0 -21.139099499148397 -12.823737088005114 -13.246060873296836 1 1 0
9011 41 8 0 -14.28708575674881 -12.848331429286999 -16.675201938102997 -1 1 0
9091 41 8 0 -14.327719247854406 -7.914320508090583 -16.476152376063396 -1 1 0
9051 41 8 0 -14.280330895056315 -10.34409804664354 -16.637748691736643 -1 1 0
8903 41 8 0 -12.618382654386641 -7.853400411413759 -13.207825488453189 1 1 0
8946 41 8 0 -9.004779090701815 -6.6533306257594305 -13.202263129895291 1 1 0
9093 41 8 0 -12.165402189666104 -9.133487410083038 -16.45453344569357 -1 1 0
9055 41 8 0 -9.997033080337166 -10.317735633123897 -16.58716859611014 -1 1 0
9092 41 8 0 -12.886642153797503 -7.958483887177594 -16.40715533990171 -1 1 0
9094 41 8 0 -10.730562071874722 -9.136319383884151 -16.648781118019418 -1 1 0
8942 41 8 0 -13.321202034812766 -6.63974877961075 -13.167619667530255 1 1 0
8904 41 8 0 -11.176803780533517 -7.854508188468267 -13.23695183315206 1 1 0
8945 41 8 0 -10.43843393037807 -6.621531991462055 -13.208650413831856 1 1 0
8864 41 8 0 -11.193111747675038 -10.338047685836791 -13.208045596003569 1 1 0
9057 41 8 0 -7.856737592799169 -11.542708410136271 -16.670277538071204 -1 1 0
8863 41 8 0 -12.641526954670683 -10.329457205118612 -13.29942830912675 1 1 0
9053 41 8 0 -12.168966123088781 -11.550508147875696 -16.561601638315565 -1 1 0
9052 41 8 0 -12.852144694429356 -10.35610291299147 -16.497964767828314 -1 1 0
8905 41 8 0 -10.486764122288271 -9.114792374337013 -13.243205953822853 1 1 0
9016 41 8 0 -8.578183877438605 -12.798914862631632 -16.704391878233906 -1 1 0
8823 41 8 0 -12.610143693548652 -12.81028137889509 -13.208505052151708 1 1 0
8865 41 8 0 -10.475349176371186 -11.610841575281984 -13.175531714662608 1 1 0
8862 41 8 0 -13.356328289282553 -11.565774322713015 -13.294495449876939 1 1 0
8827 41 8 0 -8.33070913178653 -12.840365657625453 -13.178736021484601 1 1 0
9056 41 8 0 -8.599426578350368 -10.354464754701018 -16.687695718362008 -1 1 0
9012 41 8 0 -12.863552383850392 -12.77652918503682 -16.67108735912027 -1 1 0
9015 41 8 0 -10.02614904177492 -12.826615649974613 -16.685884292145218 -1 1 0
9134 41 8 0 -10.702904660889047 -6.676137787707596 -16.728726752291745 -1 1 0
8824 41 8 0 -11.199551249849902 -12.855479647544533 -13.181518165167285 1 1 0
9137 41 8 0 -7.843137025998642 -6.614534884262259 -16.717732451718703 -1 1 0
8906 41 8 0 -9.082666320686139 -9.14222268316185 -13.212860661014284 1 1 0
9133 41 8 0 -12.178816485348808 -6.692864959852875 -16.55169094776279 -1 1 0
8902 41 8 0 -13.312895367830686 -9.09110248205053 -13.264831042763344 1 1 0
9054 41 8 0 -10.723187046056728 -11.578936445165033 -16.62078079738884 -1 1 0
8867 41 8 0 -8.343104707366201 -10.390152279173876 -13.199514378827875 1 1 0
9096 41 8 0 -8.561106708585234 -7.850037421921258 -16.58824337991125 -1 1 0
9095 41 8 0 -10.003283818825365 -7.910210053013711 -16.678936114002315 -1 1 0
8866 41 8 0 -9.074106689987376 -11.641839856760383 -13.205104583529291 1 1 0
9097 41 8 0 -7.940329625858057 -9.122558604066745 -16.560646386562972 -1 1 0
8907 41 8 0 -8.370304127456428 -7.896360764053836 -13.124238463874072 1 1 0
7798 41 8 0 -15.903700082317584 -19.138624125334704 -9.823880741009186 1 1 0
7797 41 8 0 -17.36041656585468 -19.189504379951856 -9.613905457365728 1 1 0
7796 41 8 0 -18.04091340552396 -17.92689266469618 -9.429398347188204 1 1 0
7795 41 8 0 -19.526033032832583 -17.960157773675295 -9.53840253619329 1 1 0
7794 41 8 0 -20.20990713128504 -19.205685853853772 -9.516686852004096 1 1 0
7834 41 8 0 -20.257284910093578 -16.727268219230627 -9.495915372645408 1 1 0
7837 41 8 0 -17.39226745099165 -16.66053195002953 -9.591227778557489 1 1 0
7838 41 8 0 -15.99145787615501 -16.681147974582466 -9.63622698457623 1 1 0
7836 41 8 0 -18.111942267176072 -15.461316612630918 -9.613453574264138 1 1 0
7835 41 8 0 -19.575574787209504 -15.499394569929573 -9.697478158545708 1 1 0
7799 41 8 0 -15.261951061810993 -17.87087247449347 -9.611171868916259 1 1 0
7839 41 8 0 -15.295777212567339 -15.452055877726584 -9.72327589020102 1 1 0