LAMMPS data file via write_data, version 23 Jun 2022, timestep = 1500000

10880 atoms
8 atom types
7640 bonds
9 bond types
14400 angles
18 angle types
20560 dihedrals
23 dihedral types
8800 impropers
13 improper types

-21.3 21.3 xlo xhi
-19.67555 19.67555 ylo yhi
-30.72 115 zlo zhi

Masses

1 1.008
2 12.01115
3 1.00797
4 12.01115
5 15.9994
6 14.01
7 12.01115
8 12.01115

Bond Coeffs # class2

1 0.9959 495.829 -1092.72 1441.13
2 1.101 345 -691.89 844.6
3 1.53 299.67 -501.77 679.81
4 1.4632 319.159 -586.324 961.414
5 1.5202 253.707 -423.037 396.9
6 1.202 851.14 -1918.49 2160.77
7 1.366 390.678 -768.38 923.242
8 1.53 299.67 -501.77 679.81
9 1.101 345 -691.89 844.6

Angle Coeffs # class2

1 107.66 39.641 -12.921 -2.4318
2 110.77 41.453 -10.604 5.129
3 108.533 66.9202 -13.648 10.328
4 109.83 76.8966 -48.7334 18.0162
5 112.67 39.516 -7.443 -9.5583
6 108.53 51.9747 -9.4851 -10.9985
7 107.734 40.6099 -28.8121 0
8 123.145 55.5431 -17.2123 0.1348
9 116.926 39.4193 -10.9945 -8.7733
10 125.532 101.876 -41.8094 0
11 122.948 40.482 -16.2028 0
12 122.373 27.6081 -10.3291 9.28
13 120.135 29.2218 -14.1448 7.238
14 122.752 60.4647 -29.6188 0
15 110.77 41.453 -10.604 5.129
16 107.66 39.641 -12.921 -2.4318
17 110.77 41.453 -10.604 5.129
18 112.67 39.516 -7.443 -9.5583

BondBond Coeffs

1 5.3316 1.101 1.101
2 3.3872 1.53 1.101
3 16.1478 1.101 1.4632
4 11.1849 1.53 1.4632
5 0 1.53 1.53
6 5.4199 1.53 1.5202
7 0.7115 1.101 1.5202
8 46.0685 1.5202 1.202
9 56.4788 1.5202 1.366
10 116.945 1.202 1.366
11 8.6253 0.9959 1.366
12 10.2817 0.9959 0.9959
13 5.2897 0.9959 1.4632
14 27.8556 1.4632 1.366
15 3.3872 1.53 1.101
16 5.3316 1.101 1.101
17 3.3872 1.101 1.53
18 0 1.53 1.53

BondAngle Coeffs

1 18.103 18.103 1.101 1.101
2 20.754 11.421 1.53 1.101
3 12.6574 48.1889 1.101 1.4632
4 18.3324 46.2073 1.53 1.4632
5 8.016 8.016 1.53 1.53
6 18.1678 15.8758 1.53 1.5202
7 9.1765 12.4632 1.101 1.5202
8 34.9982 37.1298 1.5202 1.202
9 25.3712 6.0803 1.5202 1.366
10 46.1093 32.8758 1.202 1.366
11 0 0 0.9959 1.366
12 11.578 11.578 0.9959 0.9959
13 10.9972 13.8967 0.9959 1.4632
14 0 0 1.4632 1.366
15 20.754 11.421 1.53 1.101
16 18.103 18.103 1.101 1.101
17 11.421 20.754 1.101 1.53
18 8.016 8.016 1.53 1.53

Dihedral Coeffs # class2

1 -0.1432 0 0.0617 0 -0.1083 0
2 0 0 0.0316 0 -0.1681 0
3 0 0 0 0 -0.1441 0
4 0 0 0 0 -0.1441 0
5 0 0 0 0 -0.3263 0
6 0 0 0 0 -0.2263 0
7 0 0 0 0 -0.3263 0
8 0 0 0 0 -0.2263 0
9 0 0 0.0514 0 -0.143 0
10 0.0972 0 0.0722 0 -0.2581 0
11 -0.0228 0 0.028 0 -0.1863 0
12 0.0442 0 0.0292 0 0.0562 0
13 0.1693 0 -0.009 0 -0.0687 0
14 -0.1804 0 0.0012 0 0.0371 0
15 0.1693 0 -0.009 0 -0.0687 0
16 -0.8236 0 2.1467 0 -0.2142 0
17 0 0 2.0521 0 0 0
18 -0.7532 0 2.7392 0 0.0907 0
19 0 0 2.0521 0 0 0
20 -0.1432 0 0.0617 0 -0.1083 0
21 0 0 0.0316 0 -0.1681 0
22 0 0 0.0316 0 -0.1681 0
23 0 0 0.0514 0 -0.143 0

AngleAngleTorsion Coeffs

1 -12.564 110.77 110.77
2 -16.164 112.67 110.77
3 0 110.77 109.83
4 0 112.67 109.83
5 0 108.533 120.135
6 0 108.533 122.752
7 0 109.83 120.135
8 0 109.83 122.752
9 -22.045 112.67 112.67
10 -0.3801 112.67 108.53
11 -5.3624 110.77 108.53
12 -8.019 108.53 123.145
13 0 108.53 116.926
14 -15.3496 107.734 123.145
15 0 107.734 116.926
16 0 116.926 122.948
17 0 125.532 122.948
18 0 116.926 122.752
19 0 125.532 122.752
20 -12.564 110.77 110.77
21 -16.164 112.67 110.77
22 -16.164 110.77 112.67
23 -22.045 112.67 112.67

EndBondTorsion Coeffs

1 0.213 0.312 0.0777 0.213 0.312 0.0777 1.101 1.101
2 0.2486 0.2422 -0.0925 0.0814 0.0591 0.2219 1.53 1.101
3 0 0 0 0 0 0 1.101 1.4632
4 0 0 0 0 0 0 1.53 1.4632
5 0 0 0 0 0 0 1.101 0.9959
6 0 0 0 0 0 0 1.101 1.366
7 0 0 0 0 0 0 1.53 0.9959
8 0 0 0 0 0 0 1.53 1.366
9 -0.0732 0 0 -0.0732 0 0 1.53 1.53
10 0.0062 -0.0002 0.0036 0.0055 0.006 -0.0009 1.53 1.5202
11 -0.0097 -0.0315 -0.0755 -0.0204 0.3628 -0.4426 1.101 1.5202
12 0.2654 0.0503 0.1046 -0.281 0.0816 -0.1522 1.53 1.202
13 0 0 0 0 0 0 1.53 1.366
14 1.2143 0.2831 0.3916 -0.2298 0.0354 0.3853 1.101 1.202
15 0 0 0 0 0 0 1.101 1.366
16 0 0 0 0 0 0 1.5202 0.9959
17 0 0 0 0 0 0 1.202 0.9959
18 0 0 0 0 0 0 1.5202 1.4632
19 0 0 0 0 0 0 1.202 1.4632
20 0.213 0.312 0.0777 0.213 0.312 0.0777 1.101 1.101
21 0.2486 0.2422 -0.0925 0.0814 0.0591 0.2219 1.53 1.101
22 0.0814 0.0591 0.2219 0.2486 0.2422 -0.0925 1.101 1.53
23 -0.0732 0 0 -0.0732 0 0 1.53 1.53

MiddleBondTorsion Coeffs

1 -14.261 -0.5322 -0.4864 1.53
2 -14.879 -3.6581 -0.3138 1.53
3 0 0 0 1.53
4 0 0 0 1.53
5 0 0 0 1.4632
6 0 0 0 1.4632
7 0 0 0 1.4632
8 0 0 0 1.4632
9 -17.787 -7.1877 0 1.53
10 -1.5945 0.2267 -0.6911 1.53
11 -3.5039 1.2458 -0.761 1.53
12 0.3388 -0.1096 0.1219 1.5202
13 -2.0061 -1.5432 1.9095 1.5202
14 0.2359 0.9139 0.9594 1.5202
15 0.2296 -0.4149 0.8003 1.5202
16 -0.5298 4.7356 -1.0637 1.366
17 0 0 0 1.366
18 -9.2512 3.4093 -2.8365 1.366
19 0 0 0 1.366
20 -14.261 -0.5322 -0.4864 1.53
21 -14.879 -3.6581 -0.3138 1.53
22 -14.879 -3.6581 -0.3138 1.53
23 -17.787 -7.1877 0 1.53

BondBond13 Coeffs

1 0 1.101 1.101
2 0 1.53 1.101
3 0 1.101 1.4632
4 0 1.53 1.4632
5 0 1.101 0.9959
6 0 1.101 1.366
7 0 1.53 0.9959
8 0 1.53 1.366
9 0 1.53 1.53
10 0 1.53 1.5202
11 0 1.101 1.5202
12 0 1.53 1.202
13 0 1.53 1.366
14 0 1.101 1.202
15 0 1.101 1.366
16 0 1.5202 0.9959
17 0 1.202 0.9959
18 0 1.5202 1.4632
19 0 1.202 1.4632
20 0 1.101 1.101
21 0 1.53 1.101
22 0 1.101 1.53
23 0 1.53 1.53

AngleTorsion Coeffs

1 -0.8085 0.5569 -0.2466 -0.8085 0.5569 -0.2466 110.77 110.77
2 -0.2454 0 -0.1136 0.3113 0.4516 -0.1988 112.67 110.77
3 0 0 0 0 0 0 110.77 109.83
4 0 0 0 0 0 0 112.67 109.83
5 0 0 0 0 0 0 108.533 120.135
6 0 0 0 0 0 0 108.533 122.752
7 0 0 0 0 0 0 109.83 120.135
8 0 0 0 0 0 0 109.83 122.752
9 0.3886 -0.3139 0.1389 0.3886 -0.3139 0.1389 112.67 112.67
10 -0.2607 0.3203 -0.2283 0.0515 -0.0674 -0.0474 112.67 108.53
11 0.0162 1.4211 -1.4092 -0.7466 -0.9448 -0.6321 110.77 108.53
12 0.0885 -1.3703 -0.5452 0.675 0.5965 0.6725 108.53 123.145
13 0 0 0 0 0 0 108.53 116.926
14 9.1299 -0.4847 0.3582 -1.4946 0.7308 -0.2083 107.734 123.145
15 0 0 0 0 0 0 107.734 116.926
16 0 0 0 0 0 0 116.926 122.948
17 0 0 0 0 0 0 125.532 122.948
18 0 0 0 0 0 0 116.926 122.752
19 0 0 0 0 0 0 125.532 122.752
20 -0.8085 0.5569 -0.2466 -0.8085 0.5569 -0.2466 110.77 110.77
21 -0.2454 0 -0.1136 0.3113 0.4516 -0.1988 112.67 110.77
22 0.3113 0.4516 -0.1988 -0.2454 0 -0.1136 110.77 112.67
23 0.3886 -0.3139 0.1389 0.3886 -0.3139 0.1389 112.67 112.67

Improper Coeffs # class2

1 24.3329 0
2 -6.5636 0
3 -5.3119 0
4 0 0
5 0 0
6 0 0
7 0 0
8 0 0
9 0 0
10 0 0
11 0 0
12 0 0
13 0 0

AngleAngle Coeffs

1 0 0 0 123.145 125.532 116.926
2 0 0 0 122.373 122.948 122.948
3 0 0 0 120.135 122.752 122.948
4 0.2738 -0.4825 0.2738 110.77 107.66 110.77
5 0 0 0 107.66 108.533 108.533
6 0 0 0 110.77 108.533 109.83
7 -1.3199 -1.3199 0.1184 112.67 110.77 110.77
8 1.0827 -1.8202 2.0403 110.77 107.734 108.53
9 -3.3867 -3.3867 -3.4976 107.66 107.734 107.734
10 0.2738 -0.4825 0.2738 110.77 107.66 110.77
11 -0.3157 -0.3157 -0.3157 107.66 107.66 107.66
12 0.2738 0.2738 -0.4825 107.66 110.77 110.77
13 0.1184 -1.3199 -1.3199 110.77 110.77 112.67

Atoms # full

10605 41 8 0 -20.212372899095 -18.68461493192255 -23.531201318286538 0 -1 0
10606 41 8 0 -18.792429585867833 -18.68387879276246 -23.532791579052684 0 -1 0
10604 41 8 0 -20.922482674449576 -17.45502890589837 -23.527474491788755 0 -1 0
10607 41 8 0 -18.08236108591562 -17.454406735987188 -23.530745517633356 0 -1 0
10608 41 8 0 -16.662614122493014 -17.454215434541357 -23.535008088393706 0 -1 0
10609 41 8 0 -15.952762599638518 -18.68396740976422 -23.540788392736964 0 -1 0
10645 41 8 0 -20.21219022811515 -16.22548134014792 -23.52446811050274 0 -1 0
10646 41 8 0 -18.792356824948982 -16.224878604494155 -23.526267427905243 0 -1 0
10649 41 8 0 -15.952084653409187 -16.224811730084436 -23.536523204002233 0 -1 0
10644 41 8 0 -20.922115525640912 -14.99596209065396 -23.52277561418291 0 -1 0
10610 41 8 0 -14.532814441700857 -18.684271049273754 -23.545647003513253 0 -1 0
10650 41 8 0 -14.532021766982442 -16.224920892773476 -23.54256792541893 0 -1 0
10647 41 8 0 -18.082240027783346 -14.995199865116291 -23.52643985572113 0 -1 0
10648 41 8 0 -16.66221168427645 -14.995117786537055 -23.531630227584728 0 -1 0
10685 41 8 0 -20.21251452700004 -13.766146431746858 -23.520544868031692 0 -1 0
10686 41 8 0 -18.79239911700318 -13.765633482284098 -23.523400795170122 0 -1 0
10689 41 8 0 -15.952276407591453 -13.765120144563092 -23.532240789132175 0 -1 0
10690 41 8 0 -14.532313405253987 -13.76481981757238 -23.540808953085385 0 -1 0
10028 41 8 0 -19.53860292259624 -15.080107367552037 -20.051576997472587 1 1 0
10069 41 8 0 -18.788505411070783 -13.822107642482727 -20.022944244579744 1 1 0
10070 41 8 0 -17.369545750124658 -13.87177108195633 -19.977146729839372 1 1 0
10031 41 8 0 -16.677391543625607 -15.15828186554837 -20.09391936050811 1 1 0
10029 41 8 0 -18.78359436514519 -16.317119043480698 -20.18875094234529 1 1 0
10030 41 8 0 -17.377590226931872 -16.344962496306664 -20.091247192789368 1 1 0
10032 41 8 0 -15.261372938864405 -15.142088338024577 -20.001671145486718 1 1 0
9992 41 8 0 -15.253751075256917 -17.54944316365279 -20.01789732010127 1 1 0
9988 41 8 0 -19.54845599338708 -17.536804276727743 -20.097782267079253 1 1 0
9991 41 8 0 -16.66656187000309 -17.590627041718705 -20.069145490804523 1 1 0
9989 41 8 0 -18.835307535436943 -18.791113686296168 -19.90403729983951 1 1 0
9990 41 8 0 -17.397763219495364 -18.821441603081958 -20.007421626369744 1 1 0
10073 41 8 0 -14.5527001237072 -13.884582319548626 -20.101459800778517 1 1 0
10033 41 8 0 -14.486850001764912 -16.383439191158605 -20.062116177753747 1 1 0
9993 41 8 0 -14.557215484847617 -18.805150096123363 -19.99551939177371 1 1 0
9987 41 8 0 -20.914013033063203 -17.536100854665186 -19.880226625993444 1 1 0
10027 41 8 0 -20.96691514096107 -15.081760370960287 -20.08695765845025 1 1 0
10613 41 8 0 -11.692189161403148 -18.684232328913772 -23.552948120454456 0 -1 0
10614 41 8 0 -10.272246519897687 -18.683946321842853 -23.558900794367418 0 -1 0
10612 41 8 0 -12.402224244028275 -17.454377968024453 -23.550986460757358 0 -1 0
10611 41 8 0 -13.822215548635555 -17.454810418325952 -23.546873771099474 0 -1 0
10615 41 8 0 -9.562260698866359 -17.453857920005674 -23.56442468247328 0 -1 0
10653 41 8 0 -11.692113390248807 -16.224502540701096 -23.55587524478099 0 -1 0
10654 41 8 0 -10.272282481710663 -16.224364738775606 -23.56230468167304 0 -1 0
10616 41 8 0 -8.14236371254559 -17.45362981013986 -23.569739047948435 0 -1 0
10651 41 8 0 -13.822371240942713 -14.99479077630896 -23.545826704784794 0 -1 0
10652 41 8 0 -12.402458182900622 -14.994941647351098 -23.553177887596952 0 -1 0
10655 41 8 0 -9.56252825100226 -14.994591124841566 -23.564217264686395 0 -1 0
10693 41 8 0 -11.69240556290372 -13.765332976067217 -23.554854502645572 0 -1 0
10694 41 8 0 -10.272674615186949 -13.765089591266312 -23.558918188457746 0 -1 0
10656 41 8 0 -8.142680745007175 -14.993976404771507 -23.569745705652473 0 -1 0
10617 41 8 0 -7.432145167842818 -18.68292596650744 -23.568004146501504 0 -1 0
10657 41 8 0 -7.432717492198438 -16.223602956409138 -23.575358981897413 0 -1 0
10697 41 8 0 -7.4325179047738725 -13.764667447557356 -23.568212692946116 0 -1 0
10074 41 8 0 -13.103290156620508 -13.881936327666212 -20.171761982196042 1 1 0
10035 41 8 0 -12.3983031496264 -15.093404719079176 -19.94826547487665 1 1 0
10036 41 8 0 -10.958803440291753 -15.081611893352715 -20.003084648371512 1 1 0
10077 41 8 0 -10.2297557227672 -13.853826597019227 -20.1249537720958 1 1 0
10037 41 8 0 -10.296976349924519 -16.326326362918167 -20.01956810477396 1 1 0
10034 41 8 0 -13.080292632135537 -16.344958989316414 -19.973713686027075 1 1 0
10078 41 8 0 -8.855622632806794 -13.88391766833312 -20.04504933014783 1 1 0
10038 41 8 0 -8.850778999885613 -16.29576509481522 -19.964854724430555 1 1 0
10039 41 8 0 -8.180870200678967 -15.04787862975434 -20.06598667363513 1 1 0
9999 41 8 0 -8.127184063195665 -17.53454715363981 -19.852708358534937 1 1 0
9996 41 8 0 -10.973763858299273 -17.543564936673462 -19.868571552268275 1 1 0
9995 41 8 0 -12.380115797900068 -17.598381877796168 -19.915083738082878 1 1 0
9994 41 8 0 -13.099062277653358 -18.82873505306385 -19.95696362208617 1 1 0
9997 41 8 0 -10.320237246292841 -18.79185566201688 -19.89630801792733 1 1 0
9998 41 8 0 -8.85728568567164 -18.776608858469952 -19.942536559688865 1 1 0
10068 41 8 0 -19.455851466289314 -12.629198615750205 -20.00602789296759 1 1 0
10071 41 8 0 -16.666129035158505 -12.62691494119336 -20.05855142282486 1 1 0
10072 41 8 0 -15.217305249674348 -12.660531505046059 -20.073659091714 1 1 0
10110 41 8 0 -17.369416004203504 -11.41291922325639 -20.004343939961522 1 1 0
10109 41 8 0 -18.77679235368103 -11.414161177904354 -20.077892659650146 1 1 0
10108 41 8 0 -19.490645437080616 -10.217821972156376 -20.145647177027126 1 1 0
10111 41 8 0 -16.70233949837756 -10.197756443105613 -20.044961916177655 1 1 0
10148 41 8 0 -19.50724129884722 -7.742894567424154 -20.26820198038153 1 1 0
10684 41 8 0 -20.92231536127378 -12.536136862024042 -23.520774903389558 0 -1 0
10687 41 8 0 -18.082629694686382 -12.535556654598139 -23.525097049919104 0 -1 0
10688 41 8 0 -16.66288502886679 -12.535740803847162 -23.52861310902144 0 -1 0
10725 41 8 0 -20.212439720286937 -11.30598993212736 -23.521079215121514 0 -1 0
10726 41 8 0 -18.79267182000123 -11.305815445623333 -23.522682817206856 0 -1 0
10729 41 8 0 -15.953049665720481 -11.305889973098207 -23.532891320329174 0 -1 0
10724 41 8 0 -20.9228888937719 -10.076630683720067 -23.521103145947226 0 -1 0
10727 41 8 0 -18.083104239421257 -10.075959171960887 -23.5251143253923 0 -1 0
10728 41 8 0 -16.66311648636247 -10.076069499573379 -23.528841496047747 0 -1 0
10730 41 8 0 -14.533084318078272 -11.30508765895685 -23.539350560728952 0 -1 0
10765 41 8 0 -20.213207689674793 -8.846499431609246 -23.521472023585243 0 -1 0
10766 41 8 0 -18.79318081209653 -8.846300272255421 -23.523765058629746 0 -1 0
10767 41 8 0 -18.08357503602699 -7.616017221819623 -23.522354643888058 0 -1 0
10764 41 8 0 -20.92293516896289 -7.616490238158457 -23.518800470249637 0 -1 0
10768 41 8 0 -16.66354667619968 -7.615813906932283 -23.524391864816877 0 -1 0
10769 41 8 0 -15.953522349970445 -8.845841890711553 -23.527081314159027 0 -1 0
10770 41 8 0 -14.533293233039615 -8.845738964122662 -23.529052490314946 0 -1 0
10149 41 8 0 -18.80313925274803 -8.954619694000332 -20.123866395868585 1 1 0
10150 41 8 0 -17.387880098791136 -8.934603284540454 -20.092008969162304 1 1 0
10151 41 8 0 -16.65686651243974 -7.7234767658889165 -20.15983375722293 1 1 0
10112 41 8 0 -15.298435782172625 -10.203877826670096 -20.013388963577906 1 1 0
10152 41 8 0 -15.229010301068948 -7.749937689901205 -20.185585584151706 1 1 0
10113 41 8 0 -14.535854208717835 -11.464112826024166 -20.04943626365641 1 1 0
10153 41 8 0 -14.545555478066218 -8.977427914427755 -20.00359025407587 1 1 0
10067 41 8 0 -20.87717870495566 -12.642466850835879 -20.074595939062473 1 1 0
10147 41 8 0 -20.93115027976849 -7.7762585044920245 -20.190267294488432 1 1 0
10107 41 8 0 -20.910330352459052 -10.214796367231815 -20.10568386640394 1 1 0
10075 41 8 0 -12.378581404479243 -12.653029536050541 -20.05689273197538 1 1 0
10076 41 8 0 -10.988776269313979 -12.642875885031295 -20.042170906958866 1 1 0
10079 41 8 0 -8.13519960738223 -12.626227182126279 -20.003691006329554 1 1 0
10114 41 8 0 -13.112365386258547 -11.479908274017236 -20.13025225254878 1 1 0
10117 41 8 0 -10.24911197336854 -11.411402442902334 -19.988564356449864 1 1 0
10118 41 8 0 -8.880901693051195 -11.41900064257883 -19.95550683858603 1 1 0
10158 41 8 0 -8.891316875926092 -8.923847494821862 -19.98291494879132 1 1 0
10116 41 8 0 -11.049005297482758 -10.184153993908588 -20.048620888918553 1 1 0
10115 41 8 0 -12.443512619141064 -10.223408537176851 -20.094151427327954 1 1 0
10154 41 8 0 -13.13906676320029 -9.001996429340018 -20.086693507212242 1 1 0
10155 41 8 0 -12.457547069935993 -7.7455840379367835 -20.10332456915148 1 1 0
10692 41 8 0 -12.402608098800865 -12.535337045874067 -23.55084591228191 0 -1 0
10691 41 8 0 -13.822781343472558 -12.53479298445296 -23.544669264504698 0 -1 0
10695 41 8 0 -9.562911278145197 -12.535083466724078 -23.557328178794585 0 -1 0
10733 41 8 0 -11.692707074145753 -11.30508717517337 -23.54956748984161 0 -1 0
10734 41 8 0 -10.272770434877483 -11.305210163286372 -23.552178721514725 0 -1 0
10696 41 8 0 -8.142920266256512 -12.535151157737172 -23.560424314812227 0 -1 0
10776 41 8 0 -8.14252004456297 -7.6161642543565815 -23.5454358054053 0 -1 0
10732 41 8 0 -12.402995246336713 -10.0751646431294 -23.54329096498146 0 -1 0
10731 41 8 0 -13.823141929191396 -10.075428821925506 -23.53757937388428 0 -1 0
10735 41 8 0 -9.562840798477362 -10.075395460707512 -23.54924087074302 0 -1 0
10773 41 8 0 -11.692770228960025 -8.84535692455904 -23.539853201573894 0 -1 0
10774 41 8 0 -10.2729647897182 -8.845795473674992 -23.54444450303407 0 -1 0
10772 41 8 0 -12.403044246513812 -7.615770063120047 -23.531585875905385 0 -1 0
10771 41 8 0 -13.823007495512549 -7.615964913848775 -23.525364372184985 0 -1 0
10775 41 8 0 -9.56257569241273 -7.616208019051564 -23.542665598400436 0 -1 0
10736 41 8 0 -8.142658162445043 -10.075509668629035 -23.552524201944482 0 -1 0
10737 41 8 0 -7.432463217133337 -11.30543449852899 -23.558327172479164 0 -1 0
10777 41 8 0 -7.432450520269307 -8.845767698492502 -23.552461197704623 0 -1 0
10156 41 8 0 -11.039713750478098 -7.689044545209243 -19.998908931662505 1 1 0
10157 41 8 0 -10.332080152539364 -8.941683960182822 -20.01414140778516 1 1 0
10119 41 8 0 -8.15480313641594 -10.222031250955954 -19.932791640993088 1 1 0
10159 41 8 0 -8.170863929329531 -7.719945493025206 -20.075853730482493 1 1 0
8558 41 8 0 -14.599665421390906 -17.092224338759316 -13.204696919886013 1 -1 0
8557 41 8 0 -16.016290928390923 -17.118685725828083 -13.206802774949535 1 -1 0
8598 41 8 0 -14.61010569665321 -14.618173045287842 -13.28009261657787 1 -1 0
9461 41 8 0 -17.179031545455544 -13.949815189273027 -16.75573426973481 0 0 0
9462 41 8 0 -15.779739204655561 -14.015138908308517 -16.758003032414273 0 0 0
8594 41 8 0 -18.88651877562621 -14.640788372831597 -13.35168566014318 1 -1 0
8597 41 8 0 -16.029934572744615 -14.616942236516243 -13.249296330432681 1 -1 0
9420 41 8 0 -17.947217001027514 -15.203492549422085 -16.79075113450467 0 0 0
9423 41 8 0 -15.116521707428799 -15.25422822288141 -16.718353015944412 0 0 0
9421 41 8 0 -17.213639145606095 -16.4248635154059 -16.69062355741375 0 0 0
9422 41 8 0 -15.84521143910834 -16.47789162809616 -16.574305470998027 0 0 0
8555 41 8 0 -18.207977830971316 -15.886913602447377 -13.278357638490474 1 -1 0
8556 41 8 0 -16.744085317715975 -15.898980406609535 -13.250901044032249 1 -1 0
9419 41 8 0 -19.369021245280695 -15.198557315022105 -16.74986348785626 0 0 0
8554 41 8 0 -18.88636838670147 -17.078988365365255 -13.359012434649532 1 -1 0
8515 41 8 0 -18.201155664689356 -18.35440231056292 -13.210102521731242 1 -1 0
8516 41 8 0 -16.74704454733108 -18.33174287601476 -13.149781745945413 1 -1 0
9383 41 8 0 -15.067323397244191 -17.666104547439634 -16.584702168400696 0 0 0
9380 41 8 0 -17.984056316969014 -17.653972328910502 -16.615219207471753 0 0 0
9379 41 8 0 -19.368231186410732 -17.65551802521304 -16.715438732230723 0 0 0
8593 41 8 0 -20.28995527153093 -14.613754795224951 -13.207210221455986 1 -1 0
8553 41 8 0 -20.311479840107236 -17.131235148781187 -13.436991605540982 1 -1 0
9458 41 8 0 -20.09410039656787 -13.9880418986375 -16.715379193383782 0 0 0
9418 41 8 0 -20.085871093190068 -16.444023462695558 -16.737754850434097 0 0 0
8513 41 8 0 -20.33739500917669 -19.57170486225693 -13.432473720095766 1 -1 0
8514 41 8 0 -18.899595374368726 -19.54505260660351 -13.3275957621977 1 -1 0
8517 41 8 0 -16.018932023461158 -19.536569214899696 -13.17138873708562 1 -1 0
8518 41 8 0 -14.595616943137099 -19.48692536792527 -13.146379229057949 1 -1 0
9378 41 8 0 -20.036984391959773 -18.906478399739658 -16.776633704624448 0 0 0
9382 41 8 0 -15.809540043836606 -18.915785093981796 -16.641689909977703 0 0 0
9381 41 8 0 -17.206935468860184 -18.87928798390971 -16.68539321153438 0 0 0
8512 41 8 0 -21.04759168048152 -18.344690024614486 -13.437559278786265 1 -1 0
8552 41 8 0 -21.019841343627757 -15.866207897711904 -13.243206709912371 1 -1 0
8596 41 8 0 -16.801442899091846 -13.432565096976417 -13.259090852603077 1 -1 0
8595 41 8 0 -18.21035081694319 -13.434323799382934 -13.195751957610268 1 -1 0
8592 41 8 0 -21.014294237781453 -13.397676445984064 -13.292183465198717 1 -1 0
9424 41 8 0 -13.688776509305132 -15.22049860201068 -16.611610038058974 0 0 0
9384 41 8 0 -13.663753000937643 -17.628542397447294 -16.62090491660549 0 0 0
8559 41 8 0 -13.934781508225324 -15.869528509455943 -13.331466712367842 1 -1 0
8519 41 8 0 -13.855653467639575 -18.278139014047003 -13.224240831867892 1 -1 0
9425 41 8 0 -12.952447490990224 -16.400613465111444 -16.604098851084668 0 0 0
9465 41 8 0 -12.960708656349697 -13.97516708339005 -16.67944801987876 0 0 0
8525 41 8 0 -7.506735844076384 -17.07072738462871 -13.285558934431858 0 -1 0
8522 41 8 0 -10.390729192405912 -17.152425624337305 -13.35960545702357 0 -1 0
8521 41 8 0 -11.776941695098202 -17.0838851075829 -13.28167409483013 0 -1 0
8560 41 8 0 -12.4751153571675 -15.874574832807754 -13.414452812339887 1 -1 0
8565 41 8 0 -7.539607409652863 -14.607620815914554 -13.354496388862463 0 -1 0
8562 41 8 0 -10.361753798889282 -14.633770716249504 -13.38634869456368 0 -1 0
8561 41 8 0 -11.806310076503292 -14.621668541373877 -13.37502859067796 0 -1 0
9466 41 8 0 -11.560182814020374 -13.991589902439271 -16.73991226432494 0 0 0
9469 41 8 0 -8.688014019183038 -13.952506181946127 -16.76796073760285 0 0 0
9470 41 8 0 -7.277567752930549 -14.015725155739878 -16.712894515528937 0 0 0
9428 41 8 0 -9.435699902059312 -15.20439767446197 -16.858967863504546 0 0 0
9427 41 8 0 -10.84215362744177 -15.193975350590822 -16.75947094724951 0 0 0
9429 41 8 0 -8.738423054445052 -16.45179557135785 -16.839275056499496 0 0 0
9430 41 8 0 -7.270973397511709 -16.503177653401146 -16.76978967215359 0 0 0
9426 41 8 0 -11.516540621186 -16.404902456059933 -16.671060829508058 0 0 0
8523 41 8 0 -9.689234082648074 -15.881527097076477 -13.292935662606435 0 -1 0
8524 41 8 0 -8.280481540610607 -15.815012582097816 -13.273660136659801 0 -1 0
8484 41 8 0 -8.253038435544685 -18.297222304184984 -13.20789318584156 0 -1 0
8520 41 8 0 -12.478735105656817 -18.344992435567484 -13.295519596008889 1 -1 0
8483 41 8 0 -9.652877379428517 -18.327193623575557 -13.271903138728987 0 -1 0
9388 41 8 0 -9.374894482126242 -17.67925547139843 -16.744321871464734 0 0 0
9387 41 8 0 -10.831615360791966 -17.674595009821317 -16.74566130189034 0 0 0
8481 41 8 0 -11.763234716895587 -19.56883138317379 -13.287652573787863 0 -1 0
8485 41 8 0 -7.563808582493823 -19.615660977549016 -13.13034648623554 0 -1 0
8482 41 8 0 -10.334194971657737 -19.573354839141206 -13.35346121725871 0 -1 0
9389 41 8 0 -8.680266409011855 -18.908709367656375 -16.76386242092364 0 0 0
9386 41 8 0 -11.542261868086358 -18.907654568869496 -16.779033674713343 0 0 0
9385 41 8 0 -12.936426948229965 -18.85167510356018 -16.635466090315802 0 0 0
9390 41 8 0 -7.270842196611146 -18.892956085978668 -16.81818632054361 0 0 0
8600 41 8 0 -12.522007974035537 -13.38833519162068 -13.330593321579952 1 -1 0
8564 41 8 0 -8.185678678700393 -13.353756446604864 -13.253044136804162 0 -1 0
8599 41 8 0 -13.88624663964811 -13.388565139662369 -13.345013393523649 1 -1 0
8563 41 8 0 -9.64756573169784 -13.338198373990236 -13.266734801741134 0 -1 0
8717 41 8 0 -16.070864098704476 -7.2328986112557905 -13.159922903069035 1 -1 0
8714 41 8 0 -18.89562004550165 -7.255007894401552 -13.343222638299624 1 -1 0
9460 41 8 0 -17.89369524848896 -12.725601272078478 -16.771040548987663 0 0 0
9463 41 8 0 -15.079732932643195 -12.796604353388577 -16.77237827722167 0 0 0
9459 41 8 0 -19.306364059759925 -12.761773706497939 -16.753785575379702 0 0 0
8673 41 8 0 -20.34679584484907 -9.726412723918969 -13.384031853457646 1 -1 0
9502 41 8 0 -15.786090706602332 -11.549540891140534 -16.787307110578883 0 0 0
9501 41 8 0 -17.163787492894613 -11.486967554544352 -16.84503201185567 0 0 0
8634 41 8 0 -18.909163369584412 -12.184076813957464 -13.246914993547165 1 -1 0
8637 41 8 0 -16.089288074101603 -12.229005458602737 -13.275031297852948 1 -1 0
8638 41 8 0 -14.617509418073027 -12.217409013128979 -13.251000884330807 1 -1 0
8635 41 8 0 -18.186847906998693 -10.938993530040284 -13.221257860657824 1 -1 0
8636 41 8 0 -16.757460635657957 -10.955013865461886 -13.24146621956727 1 -1 0
9499 41 8 0 -19.37758901383389 -10.26688431801682 -16.806449735991674 0 0 0
8678 41 8 0 -14.572609386538174 -9.686345801391111 -13.299597530432166 1 -1 0
8677 41 8 0 -16.005872987061363 -9.696133203301223 -13.238497809562428 1 -1 0
8674 41 8 0 -18.93387529502235 -9.759393134170526 -13.227558661622044 1 -1 0
9500 41 8 0 -17.940849511059774 -10.285297821515623 -16.82111793989316 0 0 0
9503 41 8 0 -15.100030093352494 -10.244654323049184 -16.786452846636042 0 0 0
8675 41 8 0 -18.170713042367712 -8.529792828797346 -13.311298359051921 1 -1 0
8676 41 8 0 -16.733067628147005 -8.457393155723523 -13.213999912536616 1 -1 0
9541 41 8 0 -17.2233429409307 -8.996674168060665 -16.794043669603976 0 0 0
9542 41 8 0 -15.836874909228364 -9.031939914643829 -16.75431057841501 0 0 0
9540 41 8 0 -17.998009087651084 -7.809635099620948 -16.652492188672714 0 0 0
9543 41 8 0 -15.145573705109351 -7.800664471816095 -16.734036677606994 0 0 0
9539 41 8 0 -19.364208268884727 -7.79625423653229 -16.735267495716773 0 0 0
9538 41 8 0 -20.07174417650284 -9.081582890288031 -16.827797938519666 0 0 0
9498 41 8 0 -20.102491518373082 -11.51555923194009 -16.76903166113888 0 0 0
8633 41 8 0 -20.33087110636156 -12.165463786846427 -13.24088933375708 1 -1 0
8718 41 8 0 -14.67118365672953 -7.246366166679382 -13.11722459562415 1 -1 0
8632 41 8 0 -21.058430679741328 -10.943092025643255 -13.326157019970484 1 -1 0
8713 41 8 0 -20.3110166971536 -7.27103800608645 -13.383816943965009 1 -1 0
8672 41 8 0 -21.02335520360054 -8.504107023732212 -13.29342274643216 1 -1 0
9546 41 8 0 -11.602945887147918 -9.037534840508801 -16.585816749213002 0 0 0
8643 41 8 0 -9.658838633781489 -8.45310367484939 -13.308611106977526 0 -1 0
8681 41 8 0 -11.775069081406194 -7.192737651834579 -13.20584173961446 0 -1 0
8682 41 8 0 -10.359385458870232 -7.244493943458665 -13.240401363264832 0 -1 0
9508 41 8 0 -9.431417163375471 -10.280273974218687 -16.63354252724673 0 0 0
8642 41 8 0 -10.366610750149258 -9.681990888179932 -13.30402120707752 0 -1 0
8685 41 8 0 -7.51080501550865 -7.245935714384568 -13.2809197463517 0 -1 0
9507 41 8 0 -10.881882070516031 -10.27332091834777 -16.51211165706964 0 0 0
9464 41 8 0 -13.625017158851344 -12.787632952261895 -16.723093773071124 0 0 0
9467 41 8 0 -10.807778112479465 -12.724927196107622 -16.64215520081172 0 0 0
9506 41 8 0 -11.581003972734253 -11.526393906004367 -16.652994437383896 0 0 0
9545 41 8 0 -12.944985862229352 -9.05192030540935 -16.720539142149487 0 0 0
9547 41 8 0 -10.8334598273361 -7.825835774627451 -16.612817032863898 0 0 0
9468 41 8 0 -9.361679006708512 -12.751696420479709 -16.769273132827553 0 0 0
8680 41 8 0 -12.49311897212112 -8.477817852885764 -13.172078946968306 1 -1 0
8601 41 8 0 -11.772125123140748 -12.18434823141652 -13.092354740848727 0 -1 0
9509 41 8 0 -8.70624826941804 -11.503869261843056 -16.745511551242828 0 0 0
9504 41 8 0 -13.659860762852976 -10.288690399437098 -16.80857085768167 0 0 0
9510 41 8 0 -7.318938601781324 -11.550046301572328 -16.773231496741992 0 0 0
8679 41 8 0 -13.88465976044324 -8.470429135654413 -13.185768890447847 1 -1 0
8639 41 8 0 -13.93773945691417 -10.94553606245703 -13.162141636595445 1 -1 0
8640 41 8 0 -12.495033504840906 -10.934212236377482 -13.11423014887119 1 -1 0
9548 41 8 0 -9.39701388460524 -7.82104603310631 -16.626630135774395 0 0 0
8602 41 8 0 -10.353486679778204 -12.168611966491422 -13.31977841597837 0 -1 0
9544 41 8 0 -13.682570431031207 -7.831373110014324 -16.786988356374124 0 0 0
9549 41 8 0 -8.751496979865063 -9.053074091796097 -16.689914606095957 0 0 0
8641 41 8 0 -11.793007224417282 -9.685646249894896 -13.133912617345665 0 -1 0
8603 41 8 0 -9.644140917444396 -10.903283098298374 -13.370735736292508 0 -1 0
8604 41 8 0 -8.192110431798922 -10.888279232945349 -13.463313389357776 0 -1 0
8605 41 8 0 -7.5107026410679385 -12.105020097622324 -13.266133701586465 0 -1 0
8644 41 8 0 -8.2329693770597 -8.483156697262636 -13.405947643008002 0 -1 0
8645 41 8 0 -7.510621595312021 -9.70540039773105 -13.459803112364483 0 -1 0
9550 41 8 0 -7.3361659760281945 -9.117491120072572 -16.737320750344598 0 0 0
9505 41 8 0 -13.003007174916018 -11.523382066896266 -16.698667621715767 0 0 0
9578 41 8 0 -20.0953389126625 -6.579787537764559 -16.747181455667448 0 0 0
9586 41 8 0 -11.56724954530757 -6.618306970420169 -16.612686300563887 0 0 0
9589 41 8 0 -8.691495841762656 -6.58477043147258 -16.74969406054315 0 0 0
9581 41 8 0 -17.264127683101897 -6.602221031802335 -16.68009706663236 0 0 0
9582 41 8 0 -15.84266563085709 -6.5882873913461175 -16.79318108454774 0 0 0
9585 41 8 0 -12.974098828930414 -6.656815746095686 -16.630624002734397 0 0 0
9590 41 8 0 -7.264620545852646 -6.625130791330002 -16.73641216544283 0 0 0
7725 41 8 0 -15.514813648716869 -15.97157022777538 -9.914079943759011 0 -1 0
7722 41 8 0 -18.380658499888064 -15.940706880262857 -10.04658850062759 0 -1 0
7683 41 8 0 -17.682633236394217 -17.19681019262645 -10.048362886917069 0 -1 0
7684 41 8 0 -16.237232154848947 -17.1620128660502 -9.927087501921138 0 -1 0
7721 41 8 0 -19.79830766447522 -15.892198256124084 -9.920333166029398 0 -1 0
7682 41 8 0 -18.389425006399424 -18.420409527761084 -9.911324853344173 0 -1 0
7681 41 8 0 -19.801078528921906 -18.416189142813668 -9.905222069506571 0 -1 0
7685 41 8 0 -15.577373921512256 -18.415556260765317 -9.934752577691773 0 -1 0
7760 41 8 0 -20.442692245027054 -14.647179970915214 -9.948226896021685 1 -1 0
7720 41 8 0 -20.481173508337125 -17.131883510648578 -9.895153151994736 1 -1 0
8283 41 8 0 -17.67104856153184 -19.66358600581338 -10.008096474525198 0 0 0